<UPF version="2.0.1">
<PP_INFO>
NOTE!!!!
This file is trimmed with a mesh size of 600 from the original version.
Trimming performed at 2023-03-31 09:10:04.904364 by trim_upf.py version 0.1.0

This pseudopotential file has been produced using the code
ONCVPSP  (Optimized Norm-Conservinng Vanderbilt PSeudopotential)
scalar-relativistic version 3.3.0 08/16/2017 by D. R. Hamann
The code is available through a link at URL www.mat-simresearch.com.
Documentation with the package provides a full discription of the
input data below.
While it is not required under the terms of the GNU GPL, it is
suggested that you cite D. R. Hamann, Phys. Rev. B 88, 085117 (2013)
in any publication using these pseudopotentials.
<PP_INPUTFILE>
# ATOM AND REFERENCE CONFIGURATION
# atsym  z   nc   nv     iexc    psfile
Ag 47.00    6    4       4      upf
#
#   n    l    f        energy (Ha)
1    0    2.00
2    0    2.00
2    1    6.00
3    0    2.00
3    1    6.00
3    2   10.00
4    0    2.00
4    1    6.00
4    2   10.00
5    0    1.00
#
# PSEUDOPOTENTIAL AND OPTIMIZATION
# lmax
2
#
#   l,   rc,      ep,       ncon, nbas, qcut
0   1.40000  -3.49309    4    8   9.20000
1   1.45000  -2.15231    4    8   9.20000
2   1.60000  -0.27354    4    8   9.20000
#
# LOCAL POTENTIAL
# lloc, lpopt,  rc(5),   dvloc0
4    5   1.40000      0.00000
#
# VANDERBILT-KLEINMAN-BYLANDER PROJECTORs
# l, nproj, debl
0    2   3.33121
1    2   2.12524
2    2   1.00000
#
# MODEL CORE CHARGE
# icmod, fcfact, rcfact
3   7.00000   1.24000
#
# LOG DERIVATIVE ANALYSIS
# epsh1, epsh2, depsh
-12.00   12.00    0.02
#
# OUTPUT GRID
# rlmax, drl
6.00    0.01
#
# TEST CONFIGURATIONS
# ncnf
0
# nvcnf
#   n    l    f
</PP_INPUTFILE>
</PP_INFO>
<!--                               -->
<!-- END OF HUMAN READABLE SECTION -->
<!--                               -->
<PP_HEADER
generated="Generated using ONCVPSP code by D. R. Hamann"
author="anonymous"
date="171031"
comment=""
element="Ag"
pseudo_type="NC"
relativistic="scalar"
is_ultrasoft="F"
is_paw="F"
is_coulomb="F"
has_so="F"
has_wfc="F"
has_gipaw="F"
core_correction="T"
functional="PBE"
z_valence="   19.00"
total_psenergy="  -2.94619621550E+02"
rho_cutoff="   1.53700000000E+01"
l_max="2"
l_local="-1"
mesh_size="   600"
number_of_wfc="4"
number_of_proj="6"/>
<PP_MESH>
<PP_R type="real"  size="600" columns="8">
0.0000    0.0100    0.0200    0.0300    0.0400    0.0500    0.0600    0.0700
0.0800    0.0900    0.1000    0.1100    0.1200    0.1300    0.1400    0.1500
0.1600    0.1700    0.1800    0.1900    0.2000    0.2100    0.2200    0.2300
0.2400    0.2500    0.2600    0.2700    0.2800    0.2900    0.3000    0.3100
0.3200    0.3300    0.3400    0.3500    0.3600    0.3700    0.3800    0.3900
0.4000    0.4100    0.4200    0.4300    0.4400    0.4500    0.4600    0.4700
0.4800    0.4900    0.5000    0.5100    0.5200    0.5300    0.5400    0.5500
0.5600    0.5700    0.5800    0.5900    0.6000    0.6100    0.6200    0.6300
0.6400    0.6500    0.6600    0.6700    0.6800    0.6900    0.7000    0.7100
0.7200    0.7300    0.7400    0.7500    0.7600    0.7700    0.7800    0.7900
0.8000    0.8100    0.8200    0.8300    0.8400    0.8500    0.8600    0.8700
0.8800    0.8900    0.9000    0.9100    0.9200    0.9300    0.9400    0.9500
0.9600    0.9700    0.9800    0.9900    1.0000    1.0100    1.0200    1.0300
1.0400    1.0500    1.0600    1.0700    1.0800    1.0900    1.1000    1.1100
1.1200    1.1300    1.1400    1.1500    1.1600    1.1700    1.1800    1.1900
1.2000    1.2100    1.2200    1.2300    1.2400    1.2500    1.2600    1.2700
1.2800    1.2900    1.3000    1.3100    1.3200    1.3300    1.3400    1.3500
1.3600    1.3700    1.3800    1.3900    1.4000    1.4100    1.4200    1.4300
1.4400    1.4500    1.4600    1.4700    1.4800    1.4900    1.5000    1.5100
1.5200    1.5300    1.5400    1.5500    1.5600    1.5700    1.5800    1.5900
1.6000    1.6100    1.6200    1.6300    1.6400    1.6500    1.6600    1.6700
1.6800    1.6900    1.7000    1.7100    1.7200    1.7300    1.7400    1.7500
1.7600    1.7700    1.7800    1.7900    1.8000    1.8100    1.8200    1.8300
1.8400    1.8500    1.8600    1.8700    1.8800    1.8900    1.9000    1.9100
1.9200    1.9300    1.9400    1.9500    1.9600    1.9700    1.9800    1.9900
2.0000    2.0100    2.0200    2.0300    2.0400    2.0500    2.0600    2.0700
2.0800    2.0900    2.1000    2.1100    2.1200    2.1300    2.1400    2.1500
2.1600    2.1700    2.1800    2.1900    2.2000    2.2100    2.2200    2.2300
2.2400    2.2500    2.2600    2.2700    2.2800    2.2900    2.3000    2.3100
2.3200    2.3300    2.3400    2.3500    2.3600    2.3700    2.3800    2.3900
2.4000    2.4100    2.4200    2.4300    2.4400    2.4500    2.4600    2.4700
2.4800    2.4900    2.5000    2.5100    2.5200    2.5300    2.5400    2.5500
2.5600    2.5700    2.5800    2.5900    2.6000    2.6100    2.6200    2.6300
2.6400    2.6500    2.6600    2.6700    2.6800    2.6900    2.7000    2.7100
2.7200    2.7300    2.7400    2.7500    2.7600    2.7700    2.7800    2.7900
2.8000    2.8100    2.8200    2.8300    2.8400    2.8500    2.8600    2.8700
2.8800    2.8900    2.9000    2.9100    2.9200    2.9300    2.9400    2.9500
2.9600    2.9700    2.9800    2.9900    3.0000    3.0100    3.0200    3.0300
3.0400    3.0500    3.0600    3.0700    3.0800    3.0900    3.1000    3.1100
3.1200    3.1300    3.1400    3.1500    3.1600    3.1700    3.1800    3.1900
3.2000    3.2100    3.2200    3.2300    3.2400    3.2500    3.2600    3.2700
3.2800    3.2900    3.3000    3.3100    3.3200    3.3300    3.3400    3.3500
3.3600    3.3700    3.3800    3.3900    3.4000    3.4100    3.4200    3.4300
3.4400    3.4500    3.4600    3.4700    3.4800    3.4900    3.5000    3.5100
3.5200    3.5300    3.5400    3.5500    3.5600    3.5700    3.5800    3.5900
3.6000    3.6100    3.6200    3.6300    3.6400    3.6500    3.6600    3.6700
3.6800    3.6900    3.7000    3.7100    3.7200    3.7300    3.7400    3.7500
3.7600    3.7700    3.7800    3.7900    3.8000    3.8100    3.8200    3.8300
3.8400    3.8500    3.8600    3.8700    3.8800    3.8900    3.9000    3.9100
3.9200    3.9300    3.9400    3.9500    3.9600    3.9700    3.9800    3.9900
4.0000    4.0100    4.0200    4.0300    4.0400    4.0500    4.0600    4.0700
4.0800    4.0900    4.1000    4.1100    4.1200    4.1300    4.1400    4.1500
4.1600    4.1700    4.1800    4.1900    4.2000    4.2100    4.2200    4.2300
4.2400    4.2500    4.2600    4.2700    4.2800    4.2900    4.3000    4.3100
4.3200    4.3300    4.3400    4.3500    4.3600    4.3700    4.3800    4.3900
4.4000    4.4100    4.4200    4.4300    4.4400    4.4500    4.4600    4.4700
4.4800    4.4900    4.5000    4.5100    4.5200    4.5300    4.5400    4.5500
4.5600    4.5700    4.5800    4.5900    4.6000    4.6100    4.6200    4.6300
4.6400    4.6500    4.6600    4.6700    4.6800    4.6900    4.7000    4.7100
4.7200    4.7300    4.7400    4.7500    4.7600    4.7700    4.7800    4.7900
4.8000    4.8100    4.8200    4.8300    4.8400    4.8500    4.8600    4.8700
4.8800    4.8900    4.9000    4.9100    4.9200    4.9300    4.9400    4.9500
4.9600    4.9700    4.9800    4.9900    5.0000    5.0100    5.0200    5.0300
5.0400    5.0500    5.0600    5.0700    5.0800    5.0900    5.1000    5.1100
5.1200    5.1300    5.1400    5.1500    5.1600    5.1700    5.1800    5.1900
5.2000    5.2100    5.2200    5.2300    5.2400    5.2500    5.2600    5.2700
5.2800    5.2900    5.3000    5.3100    5.3200    5.3300    5.3400    5.3500
5.3600    5.3700    5.3800    5.3900    5.4000    5.4100    5.4200    5.4300
5.4400    5.4500    5.4600    5.4700    5.4800    5.4900    5.5000    5.5100
5.5200    5.5300    5.5400    5.5500    5.5600    5.5700    5.5800    5.5900
5.6000    5.6100    5.6200    5.6300    5.6400    5.6500    5.6600    5.6700
5.6800    5.6900    5.7000    5.7100    5.7200    5.7300    5.7400    5.7500
5.7600    5.7700    5.7800    5.7900    5.8000    5.8100    5.8200    5.8300
5.8400    5.8500    5.8600    5.8700    5.8800    5.8900    5.9000    5.9100
5.9200    5.9300    5.9400    5.9500    5.9600    5.9700    5.9800    5.9900
</PP_R>
<PP_RAB type="real"  size="600" columns="8">
0.0100    0.0100    0.0100    0.0100    0.0100    0.0100    0.0100    0.0100
0.0100    0.0100    0.0100    0.0100    0.0100    0.0100    0.0100    0.0100
0.0100    0.0100    0.0100    0.0100    0.0100    0.0100    0.0100    0.0100
0.0100    0.0100    0.0100    0.0100    0.0100    0.0100    0.0100    0.0100
0.0100    0.0100    0.0100    0.0100    0.0100    0.0100    0.0100    0.0100
0.0100    0.0100    0.0100    0.0100    0.0100    0.0100    0.0100    0.0100
0.0100    0.0100    0.0100    0.0100    0.0100    0.0100    0.0100    0.0100
0.0100    0.0100    0.0100    0.0100    0.0100    0.0100    0.0100    0.0100
0.0100    0.0100    0.0100    0.0100    0.0100    0.0100    0.0100    0.0100
0.0100    0.0100    0.0100    0.0100    0.0100    0.0100    0.0100    0.0100
0.0100    0.0100    0.0100    0.0100    0.0100    0.0100    0.0100    0.0100
0.0100    0.0100    0.0100    0.0100    0.0100    0.0100    0.0100    0.0100
0.0100    0.0100    0.0100    0.0100    0.0100    0.0100    0.0100    0.0100
0.0100    0.0100    0.0100    0.0100    0.0100    0.0100    0.0100    0.0100
0.0100    0.0100    0.0100    0.0100    0.0100    0.0100    0.0100    0.0100
0.0100    0.0100    0.0100    0.0100    0.0100    0.0100    0.0100    0.0100
0.0100    0.0100    0.0100    0.0100    0.0100    0.0100    0.0100    0.0100
0.0100    0.0100    0.0100    0.0100    0.0100    0.0100    0.0100    0.0100
0.0100    0.0100    0.0100    0.0100    0.0100    0.0100    0.0100    0.0100
0.0100    0.0100    0.0100    0.0100    0.0100    0.0100    0.0100    0.0100
0.0100    0.0100    0.0100    0.0100    0.0100    0.0100    0.0100    0.0100
0.0100    0.0100    0.0100    0.0100    0.0100    0.0100    0.0100    0.0100
0.0100    0.0100    0.0100    0.0100    0.0100    0.0100    0.0100    0.0100
0.0100    0.0100    0.0100    0.0100    0.0100    0.0100    0.0100    0.0100
0.0100    0.0100    0.0100    0.0100    0.0100    0.0100    0.0100    0.0100
0.0100    0.0100    0.0100    0.0100    0.0100    0.0100    0.0100    0.0100
0.0100    0.0100    0.0100    0.0100    0.0100    0.0100    0.0100    0.0100
0.0100    0.0100    0.0100    0.0100    0.0100    0.0100    0.0100    0.0100
0.0100    0.0100    0.0100    0.0100    0.0100    0.0100    0.0100    0.0100
0.0100    0.0100    0.0100    0.0100    0.0100    0.0100    0.0100    0.0100
0.0100    0.0100    0.0100    0.0100    0.0100    0.0100    0.0100    0.0100
0.0100    0.0100    0.0100    0.0100    0.0100    0.0100    0.0100    0.0100
0.0100    0.0100    0.0100    0.0100    0.0100    0.0100    0.0100    0.0100
0.0100    0.0100    0.0100    0.0100    0.0100    0.0100    0.0100    0.0100
0.0100    0.0100    0.0100    0.0100    0.0100    0.0100    0.0100    0.0100
0.0100    0.0100    0.0100    0.0100    0.0100    0.0100    0.0100    0.0100
0.0100    0.0100    0.0100    0.0100    0.0100    0.0100    0.0100    0.0100
0.0100    0.0100    0.0100    0.0100    0.0100    0.0100    0.0100    0.0100
0.0100    0.0100    0.0100    0.0100    0.0100    0.0100    0.0100    0.0100
0.0100    0.0100    0.0100    0.0100    0.0100    0.0100    0.0100    0.0100
0.0100    0.0100    0.0100    0.0100    0.0100    0.0100    0.0100    0.0100
0.0100    0.0100    0.0100    0.0100    0.0100    0.0100    0.0100    0.0100
0.0100    0.0100    0.0100    0.0100    0.0100    0.0100    0.0100    0.0100
0.0100    0.0100    0.0100    0.0100    0.0100    0.0100    0.0100    0.0100
0.0100    0.0100    0.0100    0.0100    0.0100    0.0100    0.0100    0.0100
0.0100    0.0100    0.0100    0.0100    0.0100    0.0100    0.0100    0.0100
0.0100    0.0100    0.0100    0.0100    0.0100    0.0100    0.0100    0.0100
0.0100    0.0100    0.0100    0.0100    0.0100    0.0100    0.0100    0.0100
0.0100    0.0100    0.0100    0.0100    0.0100    0.0100    0.0100    0.0100
0.0100    0.0100    0.0100    0.0100    0.0100    0.0100    0.0100    0.0100
0.0100    0.0100    0.0100    0.0100    0.0100    0.0100    0.0100    0.0100
0.0100    0.0100    0.0100    0.0100    0.0100    0.0100    0.0100    0.0100
0.0100    0.0100    0.0100    0.0100    0.0100    0.0100    0.0100    0.0100
0.0100    0.0100    0.0100    0.0100    0.0100    0.0100    0.0100    0.0100
0.0100    0.0100    0.0100    0.0100    0.0100    0.0100    0.0100    0.0100
0.0100    0.0100    0.0100    0.0100    0.0100    0.0100    0.0100    0.0100
0.0100    0.0100    0.0100    0.0100    0.0100    0.0100    0.0100    0.0100
0.0100    0.0100    0.0100    0.0100    0.0100    0.0100    0.0100    0.0100
0.0100    0.0100    0.0100    0.0100    0.0100    0.0100    0.0100    0.0100
0.0100    0.0100    0.0100    0.0100    0.0100    0.0100    0.0100    0.0100
0.0100    0.0100    0.0100    0.0100    0.0100    0.0100    0.0100    0.0100
0.0100    0.0100    0.0100    0.0100    0.0100    0.0100    0.0100    0.0100
0.0100    0.0100    0.0100    0.0100    0.0100    0.0100    0.0100    0.0100
0.0100    0.0100    0.0100    0.0100    0.0100    0.0100    0.0100    0.0100
0.0100    0.0100    0.0100    0.0100    0.0100    0.0100    0.0100    0.0100
0.0100    0.0100    0.0100    0.0100    0.0100    0.0100    0.0100    0.0100
0.0100    0.0100    0.0100    0.0100    0.0100    0.0100    0.0100    0.0100
0.0100    0.0100    0.0100    0.0100    0.0100    0.0100    0.0100    0.0100
0.0100    0.0100    0.0100    0.0100    0.0100    0.0100    0.0100    0.0100
0.0100    0.0100    0.0100    0.0100    0.0100    0.0100    0.0100    0.0100
0.0100    0.0100    0.0100    0.0100    0.0100    0.0100    0.0100    0.0100
0.0100    0.0100    0.0100    0.0100    0.0100    0.0100    0.0100    0.0100
0.0100    0.0100    0.0100    0.0100    0.0100    0.0100    0.0100    0.0100
0.0100    0.0100    0.0100    0.0100    0.0100    0.0100    0.0100    0.0100
0.0100    0.0100    0.0100    0.0100    0.0100    0.0100    0.0100    0.0100
</PP_RAB>
</PP_MESH>
<PP_LOCAL type="real"  size="600" columns="4">
-5.4319455801E+01   -5.4318073353E+01   -5.4313926180E+01   -5.4307015124E+01
-5.4297341461E+01   -5.4284906779E+01   -5.4269712791E+01   -5.4251761113E+01
-5.4231052987E+01   -5.4207588996E+01   -5.4181368735E+01   -5.4152390491E+01
-5.4120650900E+01   -5.4086144623E+01   -5.4048864019E+01   -5.4008798849E+01
-5.3965935994E+01   -5.3920259208E+01   -5.3871748899E+01   -5.3820381947E+01
-5.3766131561E+01   -5.3708967170E+01   -5.3648854353E+01   -5.3585754809E+01
-5.3519626355E+01   -5.3450422967E+01   -5.3378094845E+01   -5.3302588509E+01
-5.3223846926E+01   -5.3141809654E+01   -5.3056413015E+01   -5.2967590286E+01
-5.2875271903E+01   -5.2779385693E+01   -5.2679857117E+01   -5.2576609522E+01
-5.2469564425E+01   -5.2358641796E+01   -5.2243760369E+01   -5.2124837968E+01
-5.2001791846E+01   -5.1874539054E+01   -5.1742996823E+01   -5.1607082974E+01
-5.1466716352E+01   -5.1321817288E+01   -5.1172308087E+01   -5.1018113557E+01
-5.0859161565E+01   -5.0695383640E+01   -5.0526715611E+01   -5.0353098298E+01
-5.0174478257E+01   -4.9990808570E+01   -4.9802049695E+01   -4.9608170367E+01
-4.9409148545E+01   -4.9204972390E+01   -4.8995641255E+01   -4.8781166660E+01
-4.8561573222E+01   -4.8336899480E+01   -4.8107198589E+01   -4.7872538822E+01
-4.7633003831E+01   -4.7388692637E+01   -4.7139719315E+01   -4.6886212374E+01
-4.6628313826E+01   -4.6366178001E+01   -4.6099970133E+01   -4.5829864804E+01
-4.5556044306E+01   -4.5278697010E+01   -4.4998015810E+01   -4.4714196699E+01
-4.4427437538E+01   -4.4137937020E+01   -4.3845893867E+01   -4.3551506226E+01
-4.3254971253E+01   -4.2956484855E+01   -4.2656241544E+01   -4.2354434377E+01
-4.2051254921E+01   -4.1746893245E+01   -4.1441537878E+01   -4.1135375738E+01
-4.0828592002E+01   -4.0521369925E+01   -4.0213890598E+01   -3.9906332653E+01
-3.9598871927E+01   -3.9291681085E+01   -3.8984929232E+01   -3.8678781513E+01
-3.8373398716E+01   -3.8068936904E+01   -3.7765547061E+01   -3.7463374784E+01
-3.7162560018E+01   -3.6863236830E+01   -3.6565533242E+01   -3.6269571102E+01
-3.5975466011E+01   -3.5683327290E+01   -3.5393257986E+01   -3.5105354919E+01
-3.4819708757E+01   -3.4536404119E+01   -3.4255519704E+01   -3.3977128426E+01
-3.3701297579E+01   -3.3428089002E+01   -3.3157559248E+01   -3.2889759763E+01
-3.2624737061E+01   -3.2362532902E+01   -3.2103184456E+01   -3.1846724472E+01
-3.1593181429E+01   -3.1342579687E+01   -3.1094939619E+01   -3.0850277736E+01
-3.0608606800E+01   -3.0369935914E+01   -3.0134270616E+01   -2.9901612937E+01
-2.9671961462E+01   -2.9445311367E+01   -2.9221654440E+01   -2.9000979098E+01
-2.8783270375E+01   -2.8568509910E+01   -2.8356675914E+01   -2.8147743120E+01
-2.7941682744E+01   -2.7738462417E+01   -2.7538046058E+01   -2.7340393792E+01
-2.7145462003E+01   -2.6953203777E+01   -2.6763569592E+01   -2.6576510572E+01
-2.6391978593E+01   -2.6209922294E+01   -2.6030293862E+01   -2.5853053288E+01
-2.5678168955E+01   -2.5505614481E+01   -2.5335352032E+01   -2.5167336510E+01
-2.5001529286E+01   -2.4837893433E+01   -2.4676391618E+01   -2.4516987324E+01
-2.4359644556E+01   -2.4204327806E+01   -2.4051001831E+01   -2.3899631832E+01
-2.3750182499E+01   -2.3602616401E+01   -2.3456894298E+01   -2.3312973178E+01
-2.3170810636E+01   -2.3030374403E+01   -2.2891636738E+01   -2.2754566516E+01
-2.2619132421E+01   -2.2485304931E+01   -2.2353055173E+01   -2.2222354754E+01
-2.2093175919E+01   -2.1965491567E+01   -2.1839275231E+01   -2.1714501080E+01
-2.1591143912E+01   -2.1469179152E+01   -2.1348582845E+01   -2.1229331647E+01
-2.1111402811E+01   -2.0994774181E+01   -2.0879424171E+01   -2.0765331752E+01
-2.0652476436E+01   -2.0540838253E+01   -2.0430397733E+01   -2.0321135888E+01
-2.0213034186E+01   -2.0106074530E+01   -2.0000239242E+01   -1.9895511033E+01
-1.9791872991E+01   -1.9689308553E+01   -1.9587801491E+01   -1.9487335895E+01
-1.9387896153E+01   -1.9289466936E+01   -1.9192033190E+01   -1.9095580119E+01
-1.9000093174E+01   -1.8905558053E+01   -1.8811960682E+01   -1.8719287221E+01
-1.8627524052E+01   -1.8536657782E+01   -1.8446675235E+01   -1.8357563459E+01
-1.8269309719E+01   -1.8181901501E+01   -1.8095326513E+01   -1.8009572685E+01
-1.7924628171E+01   -1.7840481345E+01   -1.7757120815E+01   -1.7674535423E+01
-1.7592714212E+01   -1.7511646393E+01   -1.7431321324E+01   -1.7351729080E+01
-1.7272859923E+01   -1.7194704038E+01   -1.7117250478E+01   -1.7040488683E+01
-1.6964408987E+01   -1.6889002813E+01   -1.6814261897E+01   -1.6740180058E+01
-1.6666751151E+01   -1.6593968469E+01   -1.6521821275E+01   -1.6450298814E+01
-1.6379391569E+01   -1.6309092294E+01   -1.6239394018E+01   -1.6170289197E+01
-1.6101770120E+01   -1.6033829219E+01   -1.5966459249E+01   -1.5899653057E+01
-1.5833403600E+01   -1.5767703945E+01   -1.5702547277E+01   -1.5637926891E+01
-1.5573836193E+01   -1.5510268698E+01   -1.5447218024E+01   -1.5384677894E+01
-1.5322642132E+01   -1.5261104661E+01   -1.5200059501E+01   -1.5139500768E+01
-1.5079422671E+01   -1.5019819510E+01   -1.4960685675E+01   -1.4902015646E+01
-1.4843803986E+01   -1.4786045345E+01   -1.4728734455E+01   -1.4671866130E+01
-1.4615435262E+01   -1.4559436823E+01   -1.4503865862E+01   -1.4448717503E+01
-1.4393986942E+01   -1.4339669451E+01   -1.4285760369E+01   -1.4232255108E+01
-1.4179149148E+01   -1.4126438036E+01   -1.4074117383E+01   -1.4022182868E+01
-1.3970630231E+01   -1.3919455276E+01   -1.3868653867E+01   -1.3818221929E+01
-1.3768155447E+01   -1.3718450462E+01   -1.3669103073E+01   -1.3620109434E+01
-1.3571465756E+01   -1.3523168302E+01   -1.3475213389E+01   -1.3427597385E+01
-1.3380316711E+01   -1.3333367836E+01   -1.3286747280E+01   -1.3240451610E+01
-1.3194477444E+01   -1.3148821443E+01   -1.3103480316E+01   -1.3058450816E+01
-1.3013729742E+01   -1.2969313935E+01   -1.2925200282E+01   -1.2881385708E+01
-1.2837867183E+01   -1.2794641717E+01   -1.2751706358E+01   -1.2709058196E+01
-1.2666694360E+01   -1.2624612014E+01   -1.2582808363E+01   -1.2541280648E+01
-1.2500026145E+01   -1.2459042167E+01   -1.2418326061E+01   -1.2377875211E+01
-1.2337687032E+01   -1.2297758974E+01   -1.2258088519E+01   -1.2218673184E+01
-1.2179510514E+01   -1.2140598087E+01   -1.2101933514E+01   -1.2063514433E+01
-1.2025338514E+01   -1.1987403455E+01   -1.1949706984E+01   -1.1912246858E+01
-1.1875020860E+01   -1.1838026803E+01   -1.1801262525E+01   -1.1764725893E+01
-1.1728414798E+01   -1.1692327158E+01   -1.1656460917E+01   -1.1620814045E+01
-1.1585384534E+01   -1.1550170402E+01   -1.1515169691E+01   -1.1480380468E+01
-1.1445800820E+01   -1.1411428861E+01   -1.1377262724E+01   -1.1343300566E+01
-1.1309540565E+01   -1.1275980924E+01   -1.1242619862E+01   -1.1209455622E+01
-1.1176486468E+01   -1.1143710684E+01   -1.1111126573E+01   -1.1078732459E+01
-1.1046526685E+01   -1.1014507613E+01   -1.0982673624E+01   -1.0951023118E+01
-1.0919554514E+01   -1.0888266247E+01   -1.0857156772E+01   -1.0826224561E+01
-1.0795468102E+01   -1.0764885903E+01   -1.0734476487E+01   -1.0704238393E+01
-1.0674170177E+01   -1.0644270413E+01   -1.0614537688E+01   -1.0584970606E+01
-1.0555567788E+01   -1.0526327867E+01   -1.0497249495E+01   -1.0468331335E+01
-1.0439572069E+01   -1.0410970388E+01   -1.0382525002E+01   -1.0354234634E+01
-1.0326098019E+01   -1.0298113907E+01   -1.0270281062E+01   -1.0242598261E+01
-1.0215064293E+01   -1.0187677962E+01   -1.0160438084E+01   -1.0133343485E+01
-1.0106393009E+01   -1.0079585507E+01   -1.0052919844E+01   -1.0026394899E+01
-1.0000009560E+01   -9.9737627281E+00   -9.9476533152E+00   -9.9216802449E+00
-9.8958424523E+00   -9.8701388830E+00   -9.8445684940E+00   -9.8191302527E+00
-9.7938231375E+00   -9.7686461370E+00   -9.7435982504E+00   -9.7186784870E+00
-9.6938858662E+00   -9.6692194176E+00   -9.6446781803E+00   -9.6202612034E+00
-9.5959675455E+00   -9.5717962747E+00   -9.5477464685E+00   -9.5238172136E+00
-9.5000076059E+00   -9.4763167503E+00   -9.4527437604E+00   -9.4292877589E+00
-9.4059478771E+00   -9.3827232548E+00   -9.3596130403E+00   -9.3366163903E+00
-9.3137324697E+00   -9.2909604518E+00   -9.2682995176E+00   -9.2457488563E+00
-9.2233076650E+00   -9.2009751485E+00   -9.1787505192E+00   -9.1566329973E+00
-9.1346218102E+00   -9.1127161931E+00   -9.0909153882E+00   -9.0692186451E+00
-9.0476252205E+00   -9.0261343780E+00   -9.0047453885E+00   -8.9834575296E+00
-8.9622700857E+00   -8.9411823480E+00   -8.9201936143E+00   -8.8993031891E+00
-8.8785103832E+00   -8.8578145140E+00   -8.8372149052E+00   -8.8167108867E+00
-8.7963017947E+00   -8.7759869716E+00   -8.7557657656E+00   -8.7356375312E+00
-8.7156016286E+00   -8.6956574240E+00   -8.6758042892E+00   -8.6560416019E+00
-8.6363687454E+00   -8.6167851087E+00   -8.5972900861E+00   -8.5778830776E+00
-8.5585634884E+00   -8.5393307292E+00   -8.5201842160E+00   -8.5011233698E+00
-8.4821476170E+00   -8.4632563891E+00   -8.4444491226E+00   -8.4257252589E+00
-8.4070842445E+00   -8.3885255306E+00   -8.3700485736E+00   -8.3516528342E+00
-8.3333377782E+00   -8.3151028759E+00   -8.2969476022E+00   -8.2788714368E+00
-8.2608738636E+00   -8.2429543713E+00   -8.2251124528E+00   -8.2073476055E+00
-8.1896593310E+00   -8.1720471354E+00   -8.1545105288E+00   -8.1370490256E+00
-8.1196621445E+00   -8.1023494081E+00   -8.0851103431E+00   -8.0679444802E+00
-8.0508513543E+00   -8.0338305039E+00   -8.0168814716E+00   -8.0000038038E+00
-7.9831970508E+00   -7.9664607664E+00   -7.9497945086E+00   -7.9331978386E+00
-7.9166703215E+00   -7.9002115261E+00   -7.8838210246E+00   -7.8674983927E+00
-7.8512432099E+00   -7.8350550589E+00   -7.8189335259E+00   -7.8028782006E+00
-7.7868886758E+00   -7.7709645480E+00   -7.7551054168E+00   -7.7393108850E+00
-7.7235805586E+00   -7.7079140471E+00   -7.6923109628E+00   -7.6767709214E+00
-7.6612935415E+00   -7.6458784449E+00   -7.6305252564E+00   -7.6152336038E+00
-7.6000031179E+00   -7.5848334324E+00   -7.5697241839E+00   -7.5546750121E+00
-7.5396855592E+00   -7.5247554706E+00   -7.5098843942E+00   -7.4950719808E+00
-7.4803178842E+00   -7.4656217604E+00   -7.4509832685E+00   -7.4364020702E+00
-7.4218778297E+00   -7.4074102140E+00   -7.3929988925E+00   -7.3786435374E+00
-7.3643438232E+00   -7.3500994271E+00   -7.3359100286E+00   -7.3217753100E+00
-7.3076949557E+00   -7.2936686526E+00   -7.2796960902E+00   -7.2657769602E+00
-7.2519109567E+00   -7.2380977760E+00   -7.2243371170E+00   -7.2106286806E+00
-7.1969721700E+00   -7.1833672910E+00   -7.1698137511E+00   -7.1563112603E+00
-7.1428595308E+00   -7.1294582768E+00   -7.1161072147E+00   -7.1028060632E+00
-7.0895545429E+00   -7.0763523765E+00   -7.0631992887E+00   -7.0500950065E+00
-7.0370392586E+00   -7.0240317760E+00   -7.0110722915E+00   -6.9981605399E+00
-6.9852962580E+00   -6.9724791845E+00   -6.9597090599E+00   -6.9469856268E+00
-6.9343086296E+00   -6.9216778146E+00   -6.9090929298E+00   -6.8965537252E+00
-6.8840599524E+00   -6.8716113651E+00   -6.8592077186E+00   -6.8468487698E+00
-6.8345342777E+00   -6.8222640029E+00   -6.8100377075E+00   -6.7978551555E+00
-6.7857161127E+00   -6.7736203463E+00   -6.7615676253E+00   -6.7495577204E+00
-6.7375904039E+00   -6.7256654495E+00   -6.7137826327E+00   -6.7019417307E+00
-6.6901425219E+00   -6.6783847867E+00   -6.6666683067E+00   -6.6549928651E+00
-6.6433582468E+00   -6.6317642380E+00   -6.6202106264E+00   -6.6086972013E+00
-6.5972237533E+00   -6.5857900747E+00   -6.5743959590E+00   -6.5630412012E+00
-6.5517255978E+00   -6.5404489465E+00   -6.5292110466E+00   -6.5180116987E+00
-6.5068507047E+00   -6.4957278680E+00   -6.4846429932E+00   -6.4735958863E+00
-6.4625863546E+00   -6.4516142068E+00   -6.4406792526E+00   -6.4297813034E+00
-6.4189201716E+00   -6.4080956710E+00   -6.3973076165E+00   -6.3865558244E+00
-6.3758401121E+00   -6.3651602984E+00   -6.3545162032E+00   -6.3439076475E+00
</PP_LOCAL>
<PP_NONLOCAL>
<PP_BETA.1
type="real"
size="600"
columns="4"
index="1"
angular_momentum="0"
cutoff_radius_index=" 168"
cutoff_radius="    1.6700000000E+00" >
-3.3384517373E-11    7.8494028851E-02    1.5680340852E-01    2.3474403272E-01
3.1213287920E-01    3.8878854724E-01    4.6453178979E-01    5.3918603857E-01
6.1257792025E-01    6.8453776222E-01    7.5490008615E-01    8.2350408795E-01
8.9019410243E-01    9.5482005145E-01    1.0172378739E+00    1.0773099365E+00
1.1349054239E+00    1.1899007075E+00    1.2421796908E+00    1.2916341321E+00
1.3381639417E+00    1.3816774539E+00    1.4220916735E+00    1.4593324949E+00
1.4933348941E+00    1.5240430929E+00    1.5514106951E+00    1.5754007941E+00
1.5959860514E+00    1.6131487465E+00    1.6268807977E+00    1.6371837536E+00
1.6440687554E+00    1.6475564701E+00    1.6476769948E+00    1.6444697323E+00
1.6379832374E+00    1.6282750358E+00    1.6154114143E+00    1.5994671839E+00
1.5805254153E+00    1.5586771486E+00    1.5340210757E+00    1.5066631990E+00
1.4767164641E+00    1.4443003697E+00    1.4095405543E+00    1.3725683609E+00
1.3335203816E+00    1.2925379823E+00    1.2497668088E+00    1.2053562771E+00
1.1594590475E+00    1.1122304858E+00    1.0638281125E+00    1.0144110415E+00
9.6413941153E-01    9.1317381144E-01    8.6167470182E-01    8.0980183531E-01
7.5771367791E-01    7.0556683403E-01    6.5351547751E-01    6.0171079151E-01
5.5030041992E-01    4.9942793282E-01    4.4923230906E-01    3.9984743836E-01
3.5140164591E-01    3.0401724193E-01    2.5781009903E-01    2.1288925962E-01
1.6935657599E-01    1.2730638525E-01    8.6825221159E-02    4.7991564906E-02
1.0875636458E-02   -2.4460772016E-02   -5.7964419413E-02   -8.9590694691E-02
-1.1930365092E-01   -1.4707599400E-01   -1.7288902605E-01   -1.9673254365E-01
-2.1860469163E-01   -2.3851177323E-01   -2.5646801808E-01   -2.7249530945E-01
-2.8662287279E-01   -2.9888692787E-01   -3.0933030691E-01   -3.1800204181E-01
-3.2495692343E-01   -3.3025503625E-01   -3.3396127220E-01   -3.3614482724E-01
-3.3687868465E-01   -3.3623908917E-01   -3.3430501600E-01   -3.3115763885E-01
-3.2687980130E-01   -3.2155549539E-01   -3.1526935173E-01   -3.0810614487E-01
-3.0015031772E-01   -2.9148552868E-01   -2.8219422465E-01   -2.7235724303E-01
-2.6205344547E-01   -2.5135938567E-01   -2.4034901333E-01   -2.2909341583E-01
-2.1766059893E-01   -2.0611530715E-01   -1.9451888444E-01   -1.8292917483E-01
-1.7140046263E-01   -1.5998345138E-01   -1.4872528000E-01   -1.3766957449E-01
-1.2685653295E-01   -1.1632304159E-01   -1.0610281859E-01   -9.6226582946E-02
-8.6722244762E-02   -7.7615113366E-02   -6.8928119461E-02   -6.0682047398E-02
-5.2895773467E-02   -4.5586506228E-02   -3.8770024742E-02   -3.2460910727E-02
-2.6672770819E-02   -2.1418445019E-02   -1.6710197946E-02   -1.2559889589E-02
-8.9791222871E-03   -5.9810283656E-03   -3.5722583774E-03   -1.7568054601E-03
-5.9558430981E-04   -5.5096298985E-05    6.2815890217E-05    5.4465017563E-06
-1.6230236281E-05    1.3224925944E-06    2.4928517975E-06   -6.1482937934E-08
-3.6530903446E-08    0.0000000000E+00    0.0000000000E+00    0.0000000000E+00
0.0000000000E+00    0.0000000000E+00    0.0000000000E+00    0.0000000000E+00
0.0000000000E+00    0.0000000000E+00    0.0000000000E+00    0.0000000000E+00
0.0000000000E+00    0.0000000000E+00    0.0000000000E+00    0.0000000000E+00
0.0000000000E+00    0.0000000000E+00    0.0000000000E+00    0.0000000000E+00
0. 0. 0. 0.
0. 0. 0. 0.
0. 0. 0. 0.
0. 0. 0. 0.
0. 0. 0. 0.
0. 0. 0. 0.
0. 0. 0. 0.
0. 0. 0. 0.
0. 0. 0. 0.
0. 0. 0. 0.
0. 0. 0. 0.
0. 0. 0. 0.
0. 0. 0. 0.
0. 0. 0. 0.
0. 0. 0. 0.
0. 0. 0. 0.
0. 0. 0. 0.
0. 0. 0. 0.
0. 0. 0. 0.
0. 0. 0. 0.
0. 0. 0. 0.
0. 0. 0. 0.
0. 0. 0. 0.
0. 0. 0. 0.
0. 0. 0. 0.
0. 0. 0. 0.
0. 0. 0. 0.
0. 0. 0. 0.
0. 0. 0. 0.
0. 0. 0. 0.
0. 0. 0. 0.
0. 0. 0. 0.
0. 0. 0. 0.
0. 0. 0. 0.
0. 0. 0. 0.
0. 0. 0. 0.
0. 0. 0. 0.
0. 0. 0. 0.
0. 0. 0. 0.
0. 0. 0. 0.
0. 0. 0. 0.
0. 0. 0. 0.
0. 0. 0. 0.
0. 0. 0. 0.
0. 0. 0. 0.
0. 0. 0. 0.
0. 0. 0. 0.
0. 0. 0. 0.
0. 0. 0. 0.
0. 0. 0. 0.
0. 0. 0. 0.
0. 0. 0. 0.
0. 0. 0. 0.
0. 0. 0. 0.
0. 0. 0. 0.
0. 0. 0. 0.
0. 0. 0. 0.
0. 0. 0. 0.
0. 0. 0. 0.
0. 0. 0. 0.
0. 0. 0. 0.
0. 0. 0. 0.
0. 0. 0. 0.
0. 0. 0. 0.
0. 0. 0. 0.
0. 0. 0. 0.
0. 0. 0. 0.
0. 0. 0. 0.
0. 0. 0. 0.
0. 0. 0. 0.
0. 0. 0. 0.
0. 0. 0. 0.
0. 0. 0. 0.