<UPF version="2.0.1">
<PP_INFO>
NOTE!!!!
This file is trimmed with a mesh size of 600 from the original version.
Trimming performed at 2023-03-31 09:10:05.149875 by trim_upf.py version 0.1.0

This pseudopotential file has been produced using the code
ONCVPSP  (Optimized Norm-Conservinng Vanderbilt PSeudopotential)
scalar-relativistic version 3.3.0 08/16/2017 by D. R. Hamann
The code is available through a link at URL www.mat-simresearch.com.
Documentation with the package provides a full discription of the
input data below.
While it is not required under the terms of the GNU GPL, it is
suggested that you cite D. R. Hamann, Phys. Rev. B 88, 085117 (2013)
in any publication using these pseudopotentials.
<PP_INPUTFILE>
# ATOM AND REFERENCE CONFIGURATION
# atsym  z   nc   nv     iexc    psfile
Al 13.00    3    2       4      upf
#
#   n    l    f        energy (Ha)
1    0    2.00
2    0    2.00
2    1    6.00
3    0    2.00
3    1    1.00
#
# PSEUDOPOTENTIAL AND OPTIMIZATION
# lmax
2
#
#   l,   rc,      ep,       ncon, nbas, qcut
0   1.75000  -0.28491    4    9   6.00000
1   1.75000  -0.09967    4    9   6.40000
2   1.70000   0.05000    4    9   6.50000
#
# LOCAL POTENTIAL
# lloc, lpopt,  rc(5),   dvloc0
4    5   1.40000      0.00000
#
# VANDERBILT-KLEINMAN-BYLANDER PROJECTORs
# l, nproj, debl
0    2   2.80000
1    2   2.80000
2    2   1.50000
#
# MODEL CORE CHARGE
# icmod, fcfact, rcfact
3   5.00000   1.30000
#
# LOG DERIVATIVE ANALYSIS
# epsh1, epsh2, depsh
-12.00   12.00    0.02
#
# OUTPUT GRID
# rlmax, drl
6.00    0.01
#
# TEST CONFIGURATIONS
# ncnf
0
# nvcnf
#   n    l    f
</PP_INPUTFILE>
</PP_INFO>
<!--                               -->
<!-- END OF HUMAN READABLE SECTION -->
<!--                               -->
<PP_HEADER
generated="Generated using ONCVPSP code by D. R. Hamann"
author="anonymous"
date="171031"
comment=""
element="Al"
pseudo_type="NC"
relativistic="scalar"
is_ultrasoft="F"
is_paw="F"
is_coulomb="F"
has_so="F"
has_wfc="F"
has_gipaw="F"
core_correction="T"
functional="PBE"
z_valence="    3.00"
total_psenergy="  -3.90554331029E+00"
rho_cutoff="   1.87500000000E+01"
l_max="2"
l_local="-1"
mesh_size="   600"
number_of_wfc="2"
number_of_proj="6"/>
<PP_MESH>
<PP_R type="real"  size="600" columns="8">
0.0000    0.0100    0.0200    0.0300    0.0400    0.0500    0.0600    0.0700
0.0800    0.0900    0.1000    0.1100    0.1200    0.1300    0.1400    0.1500
0.1600    0.1700    0.1800    0.1900    0.2000    0.2100    0.2200    0.2300
0.2400    0.2500    0.2600    0.2700    0.2800    0.2900    0.3000    0.3100
0.3200    0.3300    0.3400    0.3500    0.3600    0.3700    0.3800    0.3900
0.4000    0.4100    0.4200    0.4300    0.4400    0.4500    0.4600    0.4700
0.4800    0.4900    0.5000    0.5100    0.5200    0.5300    0.5400    0.5500
0.5600    0.5700    0.5800    0.5900    0.6000    0.6100    0.6200    0.6300
0.6400    0.6500    0.6600    0.6700    0.6800    0.6900    0.7000    0.7100
0.7200    0.7300    0.7400    0.7500    0.7600    0.7700    0.7800    0.7900
0.8000    0.8100    0.8200    0.8300    0.8400    0.8500    0.8600    0.8700
0.8800    0.8900    0.9000    0.9100    0.9200    0.9300    0.9400    0.9500
0.9600    0.9700    0.9800    0.9900    1.0000    1.0100    1.0200    1.0300
1.0400    1.0500    1.0600    1.0700    1.0800    1.0900    1.1000    1.1100
1.1200    1.1300    1.1400    1.1500    1.1600    1.1700    1.1800    1.1900
1.2000    1.2100    1.2200    1.2300    1.2400    1.2500    1.2600    1.2700
1.2800    1.2900    1.3000    1.3100    1.3200    1.3300    1.3400    1.3500
1.3600    1.3700    1.3800    1.3900    1.4000    1.4100    1.4200    1.4300
1.4400    1.4500    1.4600    1.4700    1.4800    1.4900    1.5000    1.5100
1.5200    1.5300    1.5400    1.5500    1.5600    1.5700    1.5800    1.5900
1.6000    1.6100    1.6200    1.6300    1.6400    1.6500    1.6600    1.6700
1.6800    1.6900    1.7000    1.7100    1.7200    1.7300    1.7400    1.7500
1.7600    1.7700    1.7800    1.7900    1.8000    1.8100    1.8200    1.8300
1.8400    1.8500    1.8600    1.8700    1.8800    1.8900    1.9000    1.9100
1.9200    1.9300    1.9400    1.9500    1.9600    1.9700    1.9800    1.9900
2.0000    2.0100    2.0200    2.0300    2.0400    2.0500    2.0600    2.0700
2.0800    2.0900    2.1000    2.1100    2.1200    2.1300    2.1400    2.1500
2.1600    2.1700    2.1800    2.1900    2.2000    2.2100    2.2200    2.2300
2.2400    2.2500    2.2600    2.2700    2.2800    2.2900    2.3000    2.3100
2.3200    2.3300    2.3400    2.3500    2.3600    2.3700    2.3800    2.3900
2.4000    2.4100    2.4200    2.4300    2.4400    2.4500    2.4600    2.4700
2.4800    2.4900    2.5000    2.5100    2.5200    2.5300    2.5400    2.5500
2.5600    2.5700    2.5800    2.5900    2.6000    2.6100    2.6200    2.6300
2.6400    2.6500    2.6600    2.6700    2.6800    2.6900    2.7000    2.7100
2.7200    2.7300    2.7400    2.7500    2.7600    2.7700    2.7800    2.7900
2.8000    2.8100    2.8200    2.8300    2.8400    2.8500    2.8600    2.8700
2.8800    2.8900    2.9000    2.9100    2.9200    2.9300    2.9400    2.9500
2.9600    2.9700    2.9800    2.9900    3.0000    3.0100    3.0200    3.0300
3.0400    3.0500    3.0600    3.0700    3.0800    3.0900    3.1000    3.1100
3.1200    3.1300    3.1400    3.1500    3.1600    3.1700    3.1800    3.1900
3.2000    3.2100    3.2200    3.2300    3.2400    3.2500    3.2600    3.2700
3.2800    3.2900    3.3000    3.3100    3.3200    3.3300    3.3400    3.3500
3.3600    3.3700    3.3800    3.3900    3.4000    3.4100    3.4200    3.4300
3.4400    3.4500    3.4600    3.4700    3.4800    3.4900    3.5000    3.5100
3.5200    3.5300    3.5400    3.5500    3.5600    3.5700    3.5800    3.5900
3.6000    3.6100    3.6200    3.6300    3.6400    3.6500    3.6600    3.6700
3.6800    3.6900    3.7000    3.7100    3.7200    3.7300    3.7400    3.7500
3.7600    3.7700    3.7800    3.7900    3.8000    3.8100    3.8200    3.8300
3.8400    3.8500    3.8600    3.8700    3.8800    3.8900    3.9000    3.9100
3.9200    3.9300    3.9400    3.9500    3.9600    3.9700    3.9800    3.9900
4.0000    4.0100    4.0200    4.0300    4.0400    4.0500    4.0600    4.0700
4.0800    4.0900    4.1000    4.1100    4.1200    4.1300    4.1400    4.1500
4.1600    4.1700    4.1800    4.1900    4.2000    4.2100    4.2200    4.2300
4.2400    4.2500    4.2600    4.2700    4.2800    4.2900    4.3000    4.3100
4.3200    4.3300    4.3400    4.3500    4.3600    4.3700    4.3800    4.3900
4.4000    4.4100    4.4200    4.4300    4.4400    4.4500    4.4600    4.4700
4.4800    4.4900    4.5000    4.5100    4.5200    4.5300    4.5400    4.5500
4.5600    4.5700    4.5800    4.5900    4.6000    4.6100    4.6200    4.6300
4.6400    4.6500    4.6600    4.6700    4.6800    4.6900    4.7000    4.7100
4.7200    4.7300    4.7400    4.7500    4.7600    4.7700    4.7800    4.7900
4.8000    4.8100    4.8200    4.8300    4.8400    4.8500    4.8600    4.8700
4.8800    4.8900    4.9000    4.9100    4.9200    4.9300    4.9400    4.9500
4.9600    4.9700    4.9800    4.9900    5.0000    5.0100    5.0200    5.0300
5.0400    5.0500    5.0600    5.0700    5.0800    5.0900    5.1000    5.1100
5.1200    5.1300    5.1400    5.1500    5.1600    5.1700    5.1800    5.1900
5.2000    5.2100    5.2200    5.2300    5.2400    5.2500    5.2600    5.2700
5.2800    5.2900    5.3000    5.3100    5.3200    5.3300    5.3400    5.3500
5.3600    5.3700    5.3800    5.3900    5.4000    5.4100    5.4200    5.4300
5.4400    5.4500    5.4600    5.4700    5.4800    5.4900    5.5000    5.5100
5.5200    5.5300    5.5400    5.5500    5.5600    5.5700    5.5800    5.5900
5.6000    5.6100    5.6200    5.6300    5.6400    5.6500    5.6600    5.6700
5.6800    5.6900    5.7000    5.7100    5.7200    5.7300    5.7400    5.7500
5.7600    5.7700    5.7800    5.7900    5.8000    5.8100    5.8200    5.8300
5.8400    5.8500    5.8600    5.8700    5.8800    5.8900    5.9000    5.9100
5.9200    5.9300    5.9400    5.9500    5.9600    5.9700    5.9800    5.9900
</PP_R>
<PP_RAB type="real"  size="600" columns="8">
0.0100    0.0100    0.0100    0.0100    0.0100    0.0100    0.0100    0.0100
0.0100    0.0100    0.0100    0.0100    0.0100    0.0100    0.0100    0.0100
0.0100    0.0100    0.0100    0.0100    0.0100    0.0100    0.0100    0.0100
0.0100    0.0100    0.0100    0.0100    0.0100    0.0100    0.0100    0.0100
0.0100    0.0100    0.0100    0.0100    0.0100    0.0100    0.0100    0.0100
0.0100    0.0100    0.0100    0.0100    0.0100    0.0100    0.0100    0.0100
0.0100    0.0100    0.0100    0.0100    0.0100    0.0100    0.0100    0.0100
0.0100    0.0100    0.0100    0.0100    0.0100    0.0100    0.0100    0.0100
0.0100    0.0100    0.0100    0.0100    0.0100    0.0100    0.0100    0.0100
0.0100    0.0100    0.0100    0.0100    0.0100    0.0100    0.0100    0.0100
0.0100    0.0100    0.0100    0.0100    0.0100    0.0100    0.0100    0.0100
0.0100    0.0100    0.0100    0.0100    0.0100    0.0100    0.0100    0.0100
0.0100    0.0100    0.0100    0.0100    0.0100    0.0100    0.0100    0.0100
0.0100    0.0100    0.0100    0.0100    0.0100    0.0100    0.0100    0.0100
0.0100    0.0100    0.0100    0.0100    0.0100    0.0100    0.0100    0.0100
0.0100    0.0100    0.0100    0.0100    0.0100    0.0100    0.0100    0.0100
0.0100    0.0100    0.0100    0.0100    0.0100    0.0100    0.0100    0.0100
0.0100    0.0100    0.0100    0.0100    0.0100    0.0100    0.0100    0.0100
0.0100    0.0100    0.0100    0.0100    0.0100    0.0100    0.0100    0.0100
0.0100    0.0100    0.0100    0.0100    0.0100    0.0100    0.0100    0.0100
0.0100    0.0100    0.0100    0.0100    0.0100    0.0100    0.0100    0.0100
0.0100    0.0100    0.0100    0.0100    0.0100    0.0100    0.0100    0.0100
0.0100    0.0100    0.0100    0.0100    0.0100    0.0100    0.0100    0.0100
0.0100    0.0100    0.0100    0.0100    0.0100    0.0100    0.0100    0.0100
0.0100    0.0100    0.0100    0.0100    0.0100    0.0100    0.0100    0.0100
0.0100    0.0100    0.0100    0.0100    0.0100    0.0100    0.0100    0.0100
0.0100    0.0100    0.0100    0.0100    0.0100    0.0100    0.0100    0.0100
0.0100    0.0100    0.0100    0.0100    0.0100    0.0100    0.0100    0.0100
0.0100    0.0100    0.0100    0.0100    0.0100    0.0100    0.0100    0.0100
0.0100    0.0100    0.0100    0.0100    0.0100    0.0100    0.0100    0.0100
0.0100    0.0100    0.0100    0.0100    0.0100    0.0100    0.0100    0.0100
0.0100    0.0100    0.0100    0.0100    0.0100    0.0100    0.0100    0.0100
0.0100    0.0100    0.0100    0.0100    0.0100    0.0100    0.0100    0.0100
0.0100    0.0100    0.0100    0.0100    0.0100    0.0100    0.0100    0.0100
0.0100    0.0100    0.0100    0.0100    0.0100    0.0100    0.0100    0.0100
0.0100    0.0100    0.0100    0.0100    0.0100    0.0100    0.0100    0.0100
0.0100    0.0100    0.0100    0.0100    0.0100    0.0100    0.0100    0.0100
0.0100    0.0100    0.0100    0.0100    0.0100    0.0100    0.0100    0.0100
0.0100    0.0100    0.0100    0.0100    0.0100    0.0100    0.0100    0.0100
0.0100    0.0100    0.0100    0.0100    0.0100    0.0100    0.0100    0.0100
0.0100    0.0100    0.0100    0.0100    0.0100    0.0100    0.0100    0.0100
0.0100    0.0100    0.0100    0.0100    0.0100    0.0100    0.0100    0.0100
0.0100    0.0100    0.0100    0.0100    0.0100    0.0100    0.0100    0.0100
0.0100    0.0100    0.0100    0.0100    0.0100    0.0100    0.0100    0.0100
0.0100    0.0100    0.0100    0.0100    0.0100    0.0100    0.0100    0.0100
0.0100    0.0100    0.0100    0.0100    0.0100    0.0100    0.0100    0.0100
0.0100    0.0100    0.0100    0.0100    0.0100    0.0100    0.0100    0.0100
0.0100    0.0100    0.0100    0.0100    0.0100    0.0100    0.0100    0.0100
0.0100    0.0100    0.0100    0.0100    0.0100    0.0100    0.0100    0.0100
0.0100    0.0100    0.0100    0.0100    0.0100    0.0100    0.0100    0.0100
0.0100    0.0100    0.0100    0.0100    0.0100    0.0100    0.0100    0.0100
0.0100    0.0100    0.0100    0.0100    0.0100    0.0100    0.0100    0.0100
0.0100    0.0100    0.0100    0.0100    0.0100    0.0100    0.0100    0.0100
0.0100    0.0100    0.0100    0.0100    0.0100    0.0100    0.0100    0.0100
0.0100    0.0100    0.0100    0.0100    0.0100    0.0100    0.0100    0.0100
0.0100    0.0100    0.0100    0.0100    0.0100    0.0100    0.0100    0.0100
0.0100    0.0100    0.0100    0.0100    0.0100    0.0100    0.0100    0.0100
0.0100    0.0100    0.0100    0.0100    0.0100    0.0100    0.0100    0.0100
0.0100    0.0100    0.0100    0.0100    0.0100    0.0100    0.0100    0.0100
0.0100    0.0100    0.0100    0.0100    0.0100    0.0100    0.0100    0.0100
0.0100    0.0100    0.0100    0.0100    0.0100    0.0100    0.0100    0.0100
0.0100    0.0100    0.0100    0.0100    0.0100    0.0100    0.0100    0.0100
0.0100    0.0100    0.0100    0.0100    0.0100    0.0100    0.0100    0.0100
0.0100    0.0100    0.0100    0.0100    0.0100    0.0100    0.0100    0.0100
0.0100    0.0100    0.0100    0.0100    0.0100    0.0100    0.0100    0.0100
0.0100    0.0100    0.0100    0.0100    0.0100    0.0100    0.0100    0.0100
0.0100    0.0100    0.0100    0.0100    0.0100    0.0100    0.0100    0.0100
0.0100    0.0100    0.0100    0.0100    0.0100    0.0100    0.0100    0.0100
0.0100    0.0100    0.0100    0.0100    0.0100    0.0100    0.0100    0.0100
0.0100    0.0100    0.0100    0.0100    0.0100    0.0100    0.0100    0.0100
0.0100    0.0100    0.0100    0.0100    0.0100    0.0100    0.0100    0.0100
0.0100    0.0100    0.0100    0.0100    0.0100    0.0100    0.0100    0.0100
0.0100    0.0100    0.0100    0.0100    0.0100    0.0100    0.0100    0.0100
0.0100    0.0100    0.0100    0.0100    0.0100    0.0100    0.0100    0.0100
0.0100    0.0100    0.0100    0.0100    0.0100    0.0100    0.0100    0.0100
</PP_RAB>
</PP_MESH>
<PP_LOCAL type="real"  size="600" columns="4">
-8.1841022393E+00   -8.1839427170E+00   -8.1834640633E+00   -8.1826660246E+00
-8.1815481790E+00   -8.1801099379E+00   -8.1783505487E+00   -8.1762690975E+00
-8.1738645126E+00   -8.1711355682E+00   -8.1680808888E+00   -8.1646989533E+00
-8.1609880995E+00   -8.1569465292E+00   -8.1525723122E+00   -8.1478633907E+00
-8.1428175841E+00   -8.1374325921E+00   -8.1317059990E+00   -8.1256352762E+00
-8.1192177856E+00   -8.1124507818E+00   -8.1053314139E+00   -8.0978567273E+00
-8.0900236652E+00   -8.0818290692E+00   -8.0732696807E+00   -8.0643421414E+00
-8.0550429943E+00   -8.0453686844E+00   -8.0353155600E+00   -8.0248798742E+00
-8.0140577868E+00   -8.0028453665E+00   -7.9912385941E+00   -7.9792333659E+00
-7.9668254984E+00   -7.9540107332E+00   -7.9407847427E+00   -7.9271431372E+00
-7.9130814716E+00   -7.8985952542E+00   -7.8836799547E+00   -7.8683310139E+00
-7.8525438528E+00   -7.8363138834E+00   -7.8196365182E+00   -7.8025071807E+00
-7.7849213156E+00   -7.7668743993E+00   -7.7483619486E+00   -7.7293795310E+00
-7.7099227727E+00   -7.6899873669E+00   -7.6695690808E+00   -7.6486637625E+00
-7.6272673457E+00   -7.6053758554E+00   -7.5829854108E+00   -7.5600922286E+00
-7.5366926251E+00   -7.5127830180E+00   -7.4883599267E+00   -7.4634199737E+00
-7.4379598841E+00   -7.4119764869E+00   -7.3854667144E+00   -7.3584276043E+00
-7.3308563004E+00   -7.3027500559E+00   -7.2741062363E+00   -7.2449223251E+00
-7.2151959298E+00   -7.1849247908E+00   -7.1541067913E+00   -7.1227399699E+00
-7.0908225353E+00   -7.0583528832E+00   -7.0253296158E+00   -6.9917515631E+00
-6.9576178076E+00   -6.9229277102E+00   -6.8876809395E+00   -6.8518775018E+00
-6.8155177746E+00   -6.7786025409E+00   -6.7411330252E+00   -6.7031109310E+00
-6.6645384796E+00   -6.6254184493E+00   -6.5857542151E+00   -6.5455497892E+00
-6.5048098610E+00   -6.4635398365E+00   -6.4217458778E+00   -6.3794349407E+00
-6.3366148121E+00   -6.2932941447E+00   -6.2494824914E+00   -6.2051903360E+00
-6.1604291237E+00   -6.1152112874E+00   -6.0695502732E+00   -6.0234605619E+00
-5.9769576893E+00   -5.9300582625E+00   -5.8827799750E+00   -5.8351416185E+00
-5.7871630923E+00   -5.7388654110E+00   -5.6902707096E+00   -5.6414022478E+00
-5.5922844114E+00   -5.5429427137E+00   -5.4934037960E+00   -5.4436954264E+00
-5.3938465005E+00   -5.3438870404E+00   -5.2938481958E+00   -5.2437622456E+00
-5.1936626009E+00   -5.1435838103E+00   -5.0935615671E+00   -5.0436327195E+00
-4.9938352825E+00   -4.9442084550E+00   -4.8947926382E+00   -4.8456294585E+00
-4.7967617946E+00   -4.7482338068E+00   -4.7000909714E+00   -4.6523801178E+00
-4.6051494695E+00   -4.5584486879E+00   -4.5123289195E+00   -4.4668428456E+00
-4.4220447337E+00   -4.3779904983E+00   -4.3347377285E+00   -4.2923457794E+00
-4.2508758082E+00   -4.2103908411E+00   -4.1709548112E+00   -4.1326314301E+00
-4.0954789696E+00   -4.0595462927E+00   -4.0248711207E+00   -3.9914778545E+00
-3.9593759442E+00   -3.9285591316E+00   -3.8990053070E+00   -3.8706771975E+00
-3.8435236582E+00   -3.8174815842E+00   -3.7924782208E+00   -3.7684337817E+00
-3.7452641174E+00   -3.7228834131E+00   -3.7012065859E+00   -3.6801515164E+00
-3.6596407742E+00   -3.6396030581E+00   -3.6199741211E+00   -3.6006973782E+00
-3.5817241004E+00   -3.5630133441E+00   -3.5445316137E+00   -3.5262523482E+00
-3.5081552897E+00   -3.4902257975E+00   -3.4724539386E+00   -3.4548338107E+00
-3.4373631378E+00   -3.4200422192E+00   -3.4028740122E+00   -3.3858628277E+00
-3.3690080302E+00   -3.3523012778E+00   -3.3357273043E+00   -3.3192615524E+00
-3.3028833762E+00   -3.2865912338E+00   -3.2703902500E+00   -3.2542884643E+00
-3.2382950538E+00   -3.2224109447E+00   -3.2066326375E+00   -3.1909598052E+00
-3.1753954679E+00   -3.1599417353E+00   -3.1445987653E+00   -3.1293666033E+00
-3.1142455864E+00   -3.0992357923E+00   -3.0843370740E+00   -3.0695491239E+00
-3.0548715051E+00   -3.0403036661E+00   -3.0258449541E+00   -3.0114946321E+00
-2.9972518937E+00   -2.9831158768E+00   -2.9690856757E+00   -2.9551603523E+00
-2.9413389459E+00   -2.9276204816E+00   -2.9140039785E+00   -2.9004884556E+00
-2.8870729380E+00   -2.8737564614E+00   -2.8605380765E+00   -2.8474168518E+00
-2.8343918768E+00   -2.8214622639E+00   -2.8086271501E+00   -2.7958856982E+00
-2.7832370976E+00   -2.7706805645E+00   -2.7582153426E+00   -2.7458407023E+00
-2.7335559410E+00   -2.7213603820E+00   -2.7092533742E+00   -2.6972342913E+00
-2.6853025305E+00   -2.6734575118E+00   -2.6616986767E+00   -2.6500254871E+00
-2.6384374244E+00   -2.6269339876E+00   -2.6155146927E+00   -2.6041790710E+00
-2.5929266682E+00   -2.5817570428E+00   -2.5706697651E+00   -2.5596644157E+00
-2.5487405848E+00   -2.5378978702E+00   -2.5271358771E+00   -2.5164542161E+00
-2.5058525027E+00   -2.4953303559E+00   -2.4848873973E+00   -2.4745232501E+00
-2.4642375382E+00   -2.4540298850E+00   -2.4438999131E+00   -2.4338472427E+00
-2.4238714914E+00   -2.4139722734E+00   -2.4041491983E+00   -2.3944018710E+00
-2.3847298909E+00   -2.3751328512E+00   -2.3656103382E+00   -2.3561619314E+00
-2.3467872024E+00   -2.3374857150E+00   -2.3282570244E+00   -2.3191006773E+00
-2.3100162114E+00   -2.3010031549E+00   -2.2920610271E+00   -2.2831893374E+00
-2.2743875857E+00   -2.2656552622E+00   -2.2569918475E+00   -2.2483968125E+00
-2.2398696184E+00   -2.2314097170E+00   -2.2230165509E+00   -2.2146895534E+00
-2.2064281489E+00   -2.1982317533E+00   -2.1900997739E+00   -2.1820316101E+00
-2.1740266538E+00   -2.1660842895E+00   -2.1582038947E+00   -2.1503848407E+00
-2.1426264928E+00   -2.1349282109E+00   -2.1272893499E+00   -2.1197092604E+00
-2.1121872890E+00   -2.1047227793E+00   -2.0973150718E+00   -2.0899635052E+00
-2.0826674166E+00   -2.0754261422E+00   -2.0682390176E+00   -2.0611053791E+00
-2.0540245636E+00   -2.0469959096E+00   -2.0400187575E+00   -2.0330924507E+00
-2.0262163354E+00   -2.0193897620E+00   -2.0126120850E+00   -2.0058826639E+00
-1.9992008636E+00   -1.9925660550E+00   -1.9859776154E+00   -1.9794349288E+00
-1.9729373867E+00   -1.9664843884E+00   -1.9600753413E+00   -1.9537096611E+00
-1.9473867728E+00   -1.9411061102E+00   -1.9348671169E+00   -1.9286692459E+00
-1.9225119606E+00   -1.9163947344E+00   -1.9103170511E+00   -1.9042784051E+00
-1.8982783015E+00   -1.8923162563E+00   -1.8863917961E+00   -1.8805044589E+00
-1.8746537931E+00   -1.8688393585E+00   -1.8630607257E+00   -1.8573174760E+00
-1.8516092018E+00   -1.8459355060E+00   -1.8402960023E+00   -1.8346903146E+00
-1.8291180775E+00   -1.8235789353E+00   -1.8180725426E+00   -1.8125985636E+00
-1.8071566720E+00   -1.8017465508E+00   -1.7963678920E+00   -1.7910203964E+00
-1.7857037732E+00   -1.7804177401E+00   -1.7751620223E+00   -1.7699363530E+00
-1.7647404724E+00   -1.7595741280E+00   -1.7544370739E+00   -1.7493290705E+00
-1.7442498844E+00   -1.7391992878E+00   -1.7341770586E+00   -1.7291829796E+00
-1.7242168385E+00   -1.7192784275E+00   -1.7143675433E+00   -1.7094839860E+00
-1.7046275598E+00   -1.6997980720E+00   -1.6949953331E+00   -1.6902191564E+00
-1.6854693577E+00   -1.6807457552E+00   -1.6760481693E+00   -1.6713764219E+00
-1.6667303369E+00   -1.6621097396E+00   -1.6575144563E+00   -1.6529443148E+00
-1.6483991435E+00   -1.6438787717E+00   -1.6393830293E+00   -1.6349117467E+00
-1.6304647548E+00   -1.6260418847E+00   -1.6216429677E+00   -1.6172678354E+00
-1.6129163192E+00   -1.6085882508E+00   -1.6042834617E+00   -1.6000017834E+00
-1.5957430476E+00   -1.5915070854E+00   -1.5872937284E+00   -1.5831028079E+00
-1.5789341550E+00   -1.5747876012E+00   -1.5706629779E+00   -1.5665601163E+00
-1.5624788483E+00   -1.5584190055E+00   -1.5543804201E+00   -1.5503629245E+00
-1.5463663515E+00   -1.5423905345E+00   -1.5384353073E+00   -1.5345005046E+00
-1.5305859616E+00   -1.5266915143E+00   -1.5228169999E+00   -1.5189622562E+00
-1.5151271224E+00   -1.5113114386E+00   -1.5075150463E+00   -1.5037377881E+00
-1.4999795082E+00   -1.4962400522E+00   -1.4925192670E+00   -1.4888170015E+00
-1.4851331058E+00   -1.4814674319E+00   -1.4778198336E+00   -1.4741901664E+00
-1.4705782877E+00   -1.4669840566E+00   -1.4634073342E+00   -1.4598479836E+00
-1.4563058697E+00   -1.4527808595E+00   -1.4492728217E+00   -1.4457816272E+00
-1.4423071487E+00   -1.4388492609E+00   -1.4354078406E+00   -1.4319827662E+00
-1.4285739181E+00   -1.4251811787E+00   -1.4218044322E+00   -1.4184435644E+00
-1.4150984631E+00   -1.4117690176E+00   -1.4084551191E+00   -1.4051566603E+00
-1.4018735354E+00   -1.3986056403E+00   -1.3953528722E+00   -1.3921151298E+00
-1.3888923133E+00   -1.3856843238E+00   -1.3824910641E+00   -1.3793124380E+00
-1.3761483502E+00   -1.3729987068E+00   -1.3698634148E+00   -1.3667423821E+00
-1.3636355176E+00   -1.3605427310E+00   -1.3574639326E+00   -1.3543990339E+00
-1.3513479467E+00   -1.3483105835E+00   -1.3452868577E+00   -1.3422766828E+00
-1.3392799733E+00   -1.3362966440E+00   -1.3333266100E+00   -1.3303697870E+00
-1.3274260911E+00   -1.3244954388E+00   -1.3215777469E+00   -1.3186729325E+00
-1.3157809131E+00   -1.3129016066E+00   -1.3100349309E+00   -1.3071808046E+00
-1.3043391462E+00   -1.3015098748E+00   -1.2986929097E+00   -1.2958881704E+00
-1.2930955767E+00   -1.2903150489E+00   -1.2875465075E+00   -1.2847898733E+00
-1.2820450676E+00   -1.2793120118E+00   -1.2765906279E+00   -1.2738808382E+00
-1.2711825656E+00   -1.2684957332E+00   -1.2658202646E+00   -1.2631560840E+00
-1.2605031161E+00   -1.2578612860E+00   -1.2552305195E+00   -1.2526107427E+00
-1.2500018827E+00   -1.2474038669E+00   -1.2448166234E+00   -1.2422400810E+00
-1.2396741692E+00   -1.2371188181E+00   -1.2345739586E+00   -1.2320395221E+00
-1.2295154411E+00   -1.2270016486E+00   -1.2244980783E+00   -1.2220046650E+00
-1.2195213438E+00   -1.2170480511E+00   -1.2145847236E+00   -1.2121312992E+00
-1.2096877163E+00   -1.2072539142E+00   -1.2048298331E+00   -1.2024154138E+00
-1.2000105978E+00   -1.1976153278E+00   -1.1952295467E+00   -1.1928531987E+00
-1.1904862282E+00   -1.1881285808E+00   -1.1857802024E+00   -1.1834410399E+00
-1.1811110407E+00   -1.1787901530E+00   -1.1764783255E+00   -1.1741755075E+00
-1.1718816490E+00   -1.1695967005E+00   -1.1673206130E+00   -1.1650533382E+00
-1.1627948282E+00   -1.1605450355E+00   -1.1583039132E+00   -1.1560714148E+00
-1.1538474940E+00   -1.1516321048E+00   -1.1494252019E+00   -1.1472267402E+00
-1.1450366722E+00   -1.1428549540E+00   -1.1406815453E+00   -1.1385164033E+00
-1.1363594848E+00   -1.1342107464E+00   -1.1320701505E+00   -1.1299376678E+00
-1.1278132253E+00   -1.1256967731E+00   -1.1235882625E+00   -1.1214876475E+00
-1.1193948847E+00   -1.1173098821E+00   -1.1152326592E+00   -1.1131632051E+00
-1.1111015024E+00   -1.1090475334E+00   -1.1070012785E+00   -1.1049627344E+00
-1.1029318756E+00   -1.1009086321E+00   -1.0988929540E+00   -1.0968847848E+00
-1.0948840626E+00   -1.0928907201E+00   -1.0909047323E+00   -1.0889259740E+00
-1.0869543559E+00   -1.0849897944E+00   -1.0830322099E+00   -1.0810815294E+00
-1.0791376428E+00   -1.0772004576E+00   -1.0752700497E+00   -1.0733464122E+00
-1.0714295445E+00   -1.0695194499E+00   -1.0676161321E+00   -1.0657196762E+00
-1.0638300244E+00   -1.0619471020E+00   -1.0600708718E+00   -1.0582012922E+00
-1.0563383187E+00   -1.0544819049E+00   -1.0526319536E+00   -1.0507884728E+00
-1.0489514323E+00   -1.0471207982E+00   -1.0452965378E+00   -1.0434786191E+00
-1.0416670117E+00   -1.0398616937E+00   -1.0380626226E+00   -1.0362697662E+00
-1.0344830923E+00   -1.0327025689E+00   -1.0309281643E+00   -1.0291598469E+00
-1.0273975849E+00   -1.0256413478E+00   -1.0238911047E+00   -1.0221468250E+00
-1.0204084782E+00   -1.0186760341E+00   -1.0169494628E+00   -1.0152287343E+00
-1.0135138191E+00   -1.0118046877E+00   -1.0101013110E+00   -1.0084036600E+00
-1.0067117058E+00   -1.0050254197E+00   -1.0033447734E+00   -1.0016697387E+00
</PP_LOCAL>
<PP_NONLOCAL>
<PP_BETA.1
type="real"
size="600"
columns="4"
index="1"
angular_momentum="0"
cutoff_radius_index=" 180"
cutoff_radius="    1.7900000000E+00" >
-1.5381511065E-09    2.2298172447E-02    4.4482909183E-02    6.6442672063E-02
8.8069689886E-02    1.0926177179E-01    1.2992403766E-01    1.4997053977E-01
1.6932575124E-01    1.8792589909E-01    2.0572012151E-01    2.2267143174E-01
2.3875747353E-01    2.5397105616E-01    2.6832046019E-01    2.8182950820E-01
2.9453739836E-01    3.0649830184E-01    3.1778072863E-01    3.2846666943E-01
3.3865052484E-01    3.4843783574E-01    3.5794383200E-01    3.6729181905E-01
3.7661142438E-01    3.8603672810E-01    3.9570430340E-01    4.0575119406E-01
4.1631285753E-01    4.2752110230E-01    4.3950204872E-01    4.5237414233E-01
4.6624624798E-01    4.8121585226E-01    4.9736740017E-01    5.1477079036E-01
5.3348005132E-01    5.5353221819E-01    5.7494642746E-01    5.9772324382E-01
6.2184423019E-01    6.4727176885E-01    6.7394913804E-01    7.0180084479E-01
7.3073321160E-01    7.6063521054E-01    7.9137953541E-01    8.2282389900E-01
8.5481253930E-01    8.8717791582E-01    9.1974257412E-01    9.5232115460E-01
9.8472251916E-01    1.0167519678E+00    1.0482135160E+00    1.0789122018E+00
1.1086563932E+00    1.1372600627E+00    1.1645450004E+00    1.1903429335E+00
1.2144975252E+00    1.2368662239E+00    1.2573219384E+00    1.2757545143E+00
1.2920719928E+00    1.3062016321E+00    1.3180906784E+00    1.3277068738E+00
1.3350386939E+00    1.3400953105E+00    1.3429062802E+00    1.3435209598E+00
1.3420076585E+00    1.3384525346E+00    1.3329582534E+00    1.3256424223E+00
1.3166358245E+00    1.3060804745E+00    1.2941275224E+00    1.2809350338E+00
1.2666656772E+00    1.2514843500E+00    1.2355557753E+00    1.2190421035E+00
1.2021005526E+00    1.1848811191E+00    1.1675243929E+00    1.1501595082E+00
1.1329022575E+00    1.1158533997E+00    1.0990971844E+00    1.0827001166E+00
1.0667099807E+00    1.0511551393E+00    1.0360441190E+00    1.0213654925E+00
1.0070880602E+00    9.9316133264E-01    9.7951630887E-01    9.6606654466E-01
9.5270949683E-01    9.3932812909E-01    9.2579275944E-01    9.1196312620E-01
8.9769064651E-01    8.8282083814E-01    8.6719587290E-01    8.5065722785E-01
8.3304839889E-01    8.1421763975E-01    7.9402068901E-01    7.7232344711E-01
7.4900456570E-01    7.2395791256E-01    6.9709487605E-01    6.6834647498E-01
6.3766524223E-01    6.0502685266E-01    5.7043146851E-01    5.3390477966E-01
4.9549871976E-01    4.5529184219E-01    4.1338934495E-01    3.6992273833E-01
3.2504915305E-01    2.7895029055E-01    2.3183102373E-01    1.8391766010E-01
1.3545588154E-01    8.6708383753E-02    3.7952239280E-02   -1.0523988889E-02
-5.8423348505E-02   -1.0544378060E-01   -1.5128154553E-01   -1.9563475093E-01
-2.3820694155E-01   -2.7871070631E-01   -3.1687125964E-01   -3.5242995083E-01
-3.8514766464E-01   -4.1480805649E-01   -4.4122058421E-01   -4.6422326723E-01
-4.8368497507E-01   -4.9950732002E-01   -5.1162608640E-01   -5.2001219001E-01
-5.2467218501E-01   -5.2564829732E-01   -5.2301804053E-01   -5.1689341462E-01
-5.0741974050E-01   -4.9477415066E-01   -4.7916377874E-01   -4.6082366532E-01
-4.4001441702E-01   -4.1701962544E-01   -3.9214307270E-01   -3.6570573547E-01
-3.3804259543E-01   -3.0949928905E-01   -2.8042859518E-01   -2.5118681041E-01
-2.2213001633E-01   -1.9361029819E-01   -1.6597193280E-01   -1.3954760740E-01
-1.1465469955E-01   -9.1591677962E-02   -7.0634661080E-02   -5.2042475719E-02
-3.6025527252E-02   -2.2716238635E-02   -1.2343702690E-02   -5.2549257256E-03
-1.3486746537E-03    1.8191734773E-04    3.1554347326E-04   -1.6475527966E-05
0. 0. 0. 0.
0. 0. 0. 0.
0. 0. 0. 0.
0. 0. 0. 0.
0. 0. 0. 0.
0. 0. 0. 0.
0. 0. 0. 0.
0. 0. 0. 0.
0. 0. 0. 0.
0. 0. 0. 0.
0. 0. 0. 0.
0. 0. 0. 0.
0. 0. 0. 0.
0. 0. 0. 0.
0. 0. 0. 0.
0. 0. 0. 0.
0. 0. 0. 0.
0. 0. 0. 0.
0. 0. 0. 0.
0. 0. 0. 0.
0. 0. 0. 0.
0. 0. 0. 0.
0. 0. 0. 0.
0. 0. 0. 0.
0. 0. 0. 0.
0. 0. 0. 0.
0. 0. 0. 0.
0. 0. 0. 0.
0. 0. 0. 0.
0. 0. 0. 0.
0. 0. 0. 0.
0. 0. 0. 0.
0. 0. 0. 0.
0. 0. 0. 0.
0. 0. 0. 0.
0. 0. 0. 0.
0. 0. 0. 0.
0. 0. 0. 0.
0. 0. 0. 0.
0. 0. 0. 0.
0. 0. 0. 0.
0. 0. 0. 0.
0. 0. 0. 0.
0. 0. 0. 0.
0. 0. 0. 0.
0. 0. 0. 0.
0. 0. 0. 0.
0. 0. 0. 0.
0. 0. 0. 0.
0. 0. 0. 0.
0. 0. 0. 0.
0. 0. 0. 0.
0. 0. 0. 0.
0. 0. 0. 0.
0. 0. 0. 0.
0. 0. 0. 0.
0. 0. 0. 0.
0. 0. 0. 0.
0. 0. 0. 0.
0. 0. 0. 0.