<UPF version="2.0.1">
<PP_INFO>
NOTE!!!!
This file is trimmed with a mesh size of 600 from the original version.
Trimming performed at 2023-03-31 09:10:04.991343 by trim_upf.py version 0.1.0

This pseudopotential file has been produced using the code
ONCVPSP  (Optimized Norm-Conservinng Vanderbilt PSeudopotential)
scalar-relativistic version 3.3.0 08/16/2017 by D. R. Hamann
The code is available through a link at URL www.mat-simresearch.com.
Documentation with the package provides a full discription of the
input data below.
While it is not required under the terms of the GNU GPL, it is
suggested that you cite D. R. Hamann, Phys. Rev. B 88, 085117 (2013)
in any publication using these pseudopotentials.
<PP_INPUTFILE>
# ATOM AND REFERENCE CONFIGURATION
# atsym  z   nc   nv     iexc    psfile
As 33.00    5    3       4      upf
#
#   n    l    f        energy (Ha)
1    0    2.00
2    0    2.00
2    1    6.00
3    0    2.00
3    1    6.00
3    2   10.00
4    0    2.00
4    1    3.00
#
# PSEUDOPOTENTIAL AND OPTIMIZATION
# lmax
2
#
#   l,   rc,      ep,       ncon, nbas, qcut
0   1.75000  -0.53265    3    8   5.30000
1   1.70000  -0.19091    4    8   6.00000
2   1.80000  -1.49370    4    7   9.00000
#
# LOCAL POTENTIAL
# lloc, lpopt,  rc(5),   dvloc0
4    5   1.60000      0.00000
#
# VANDERBILT-KLEINMAN-BYLANDER PROJECTORs
# l, nproj, debl
0    2   4.50000
1    2   4.80000
2    2   2.50000
#
# MODEL CORE CHARGE
# icmod, fcfact, rcfact
3   5.00000   1.40000
#
# LOG DERIVATIVE ANALYSIS
# epsh1, epsh2, depsh
-12.00   12.00    0.02
#
# OUTPUT GRID
# rlmax, drl
6.00    0.01
#
# TEST CONFIGURATIONS
# ncnf
0
# nvcnf
#   n    l    f
</PP_INPUTFILE>
</PP_INFO>
<!--                               -->
<!-- END OF HUMAN READABLE SECTION -->
<!--                               -->
<PP_HEADER
generated="Generated using ONCVPSP code by D. R. Hamann"
author="anonymous"
date="171031"
comment=""
element="As"
pseudo_type="NC"
relativistic="scalar"
is_ultrasoft="F"
is_paw="F"
is_coulomb="F"
has_so="F"
has_wfc="F"
has_gipaw="F"
core_correction="T"
functional="PBE"
z_valence="   15.00"
total_psenergy="  -1.91540689743E+02"
rho_cutoff="   1.35700000000E+01"
l_max="2"
l_local="-1"
mesh_size="   600"
number_of_wfc="3"
number_of_proj="6"/>
<PP_MESH>
<PP_R type="real"  size="600" columns="8">
0.0000    0.0100    0.0200    0.0300    0.0400    0.0500    0.0600    0.0700
0.0800    0.0900    0.1000    0.1100    0.1200    0.1300    0.1400    0.1500
0.1600    0.1700    0.1800    0.1900    0.2000    0.2100    0.2200    0.2300
0.2400    0.2500    0.2600    0.2700    0.2800    0.2900    0.3000    0.3100
0.3200    0.3300    0.3400    0.3500    0.3600    0.3700    0.3800    0.3900
0.4000    0.4100    0.4200    0.4300    0.4400    0.4500    0.4600    0.4700
0.4800    0.4900    0.5000    0.5100    0.5200    0.5300    0.5400    0.5500
0.5600    0.5700    0.5800    0.5900    0.6000    0.6100    0.6200    0.6300
0.6400    0.6500    0.6600    0.6700    0.6800    0.6900    0.7000    0.7100
0.7200    0.7300    0.7400    0.7500    0.7600    0.7700    0.7800    0.7900
0.8000    0.8100    0.8200    0.8300    0.8400    0.8500    0.8600    0.8700
0.8800    0.8900    0.9000    0.9100    0.9200    0.9300    0.9400    0.9500
0.9600    0.9700    0.9800    0.9900    1.0000    1.0100    1.0200    1.0300
1.0400    1.0500    1.0600    1.0700    1.0800    1.0900    1.1000    1.1100
1.1200    1.1300    1.1400    1.1500    1.1600    1.1700    1.1800    1.1900
1.2000    1.2100    1.2200    1.2300    1.2400    1.2500    1.2600    1.2700
1.2800    1.2900    1.3000    1.3100    1.3200    1.3300    1.3400    1.3500
1.3600    1.3700    1.3800    1.3900    1.4000    1.4100    1.4200    1.4300
1.4400    1.4500    1.4600    1.4700    1.4800    1.4900    1.5000    1.5100
1.5200    1.5300    1.5400    1.5500    1.5600    1.5700    1.5800    1.5900
1.6000    1.6100    1.6200    1.6300    1.6400    1.6500    1.6600    1.6700
1.6800    1.6900    1.7000    1.7100    1.7200    1.7300    1.7400    1.7500
1.7600    1.7700    1.7800    1.7900    1.8000    1.8100    1.8200    1.8300
1.8400    1.8500    1.8600    1.8700    1.8800    1.8900    1.9000    1.9100
1.9200    1.9300    1.9400    1.9500    1.9600    1.9700    1.9800    1.9900
2.0000    2.0100    2.0200    2.0300    2.0400    2.0500    2.0600    2.0700
2.0800    2.0900    2.1000    2.1100    2.1200    2.1300    2.1400    2.1500
2.1600    2.1700    2.1800    2.1900    2.2000    2.2100    2.2200    2.2300
2.2400    2.2500    2.2600    2.2700    2.2800    2.2900    2.3000    2.3100
2.3200    2.3300    2.3400    2.3500    2.3600    2.3700    2.3800    2.3900
2.4000    2.4100    2.4200    2.4300    2.4400    2.4500    2.4600    2.4700
2.4800    2.4900    2.5000    2.5100    2.5200    2.5300    2.5400    2.5500
2.5600    2.5700    2.5800    2.5900    2.6000    2.6100    2.6200    2.6300
2.6400    2.6500    2.6600    2.6700    2.6800    2.6900    2.7000    2.7100
2.7200    2.7300    2.7400    2.7500    2.7600    2.7700    2.7800    2.7900
2.8000    2.8100    2.8200    2.8300    2.8400    2.8500    2.8600    2.8700
2.8800    2.8900    2.9000    2.9100    2.9200    2.9300    2.9400    2.9500
2.9600    2.9700    2.9800    2.9900    3.0000    3.0100    3.0200    3.0300
3.0400    3.0500    3.0600    3.0700    3.0800    3.0900    3.1000    3.1100
3.1200    3.1300    3.1400    3.1500    3.1600    3.1700    3.1800    3.1900
3.2000    3.2100    3.2200    3.2300    3.2400    3.2500    3.2600    3.2700
3.2800    3.2900    3.3000    3.3100    3.3200    3.3300    3.3400    3.3500
3.3600    3.3700    3.3800    3.3900    3.4000    3.4100    3.4200    3.4300
3.4400    3.4500    3.4600    3.4700    3.4800    3.4900    3.5000    3.5100
3.5200    3.5300    3.5400    3.5500    3.5600    3.5700    3.5800    3.5900
3.6000    3.6100    3.6200    3.6300    3.6400    3.6500    3.6600    3.6700
3.6800    3.6900    3.7000    3.7100    3.7200    3.7300    3.7400    3.7500
3.7600    3.7700    3.7800    3.7900    3.8000    3.8100    3.8200    3.8300
3.8400    3.8500    3.8600    3.8700    3.8800    3.8900    3.9000    3.9100
3.9200    3.9300    3.9400    3.9500    3.9600    3.9700    3.9800    3.9900
4.0000    4.0100    4.0200    4.0300    4.0400    4.0500    4.0600    4.0700
4.0800    4.0900    4.1000    4.1100    4.1200    4.1300    4.1400    4.1500
4.1600    4.1700    4.1800    4.1900    4.2000    4.2100    4.2200    4.2300
4.2400    4.2500    4.2600    4.2700    4.2800    4.2900    4.3000    4.3100
4.3200    4.3300    4.3400    4.3500    4.3600    4.3700    4.3800    4.3900
4.4000    4.4100    4.4200    4.4300    4.4400    4.4500    4.4600    4.4700
4.4800    4.4900    4.5000    4.5100    4.5200    4.5300    4.5400    4.5500
4.5600    4.5700    4.5800    4.5900    4.6000    4.6100    4.6200    4.6300
4.6400    4.6500    4.6600    4.6700    4.6800    4.6900    4.7000    4.7100
4.7200    4.7300    4.7400    4.7500    4.7600    4.7700    4.7800    4.7900
4.8000    4.8100    4.8200    4.8300    4.8400    4.8500    4.8600    4.8700
4.8800    4.8900    4.9000    4.9100    4.9200    4.9300    4.9400    4.9500
4.9600    4.9700    4.9800    4.9900    5.0000    5.0100    5.0200    5.0300
5.0400    5.0500    5.0600    5.0700    5.0800    5.0900    5.1000    5.1100
5.1200    5.1300    5.1400    5.1500    5.1600    5.1700    5.1800    5.1900
5.2000    5.2100    5.2200    5.2300    5.2400    5.2500    5.2600    5.2700
5.2800    5.2900    5.3000    5.3100    5.3200    5.3300    5.3400    5.3500
5.3600    5.3700    5.3800    5.3900    5.4000    5.4100    5.4200    5.4300
5.4400    5.4500    5.4600    5.4700    5.4800    5.4900    5.5000    5.5100
5.5200    5.5300    5.5400    5.5500    5.5600    5.5700    5.5800    5.5900
5.6000    5.6100    5.6200    5.6300    5.6400    5.6500    5.6600    5.6700
5.6800    5.6900    5.7000    5.7100    5.7200    5.7300    5.7400    5.7500
5.7600    5.7700    5.7800    5.7900    5.8000    5.8100    5.8200    5.8300
5.8400    5.8500    5.8600    5.8700    5.8800    5.8900    5.9000    5.9100
5.9200    5.9300    5.9400    5.9500    5.9600    5.9700    5.9800    5.9900
</PP_R>
<PP_RAB type="real"  size="600" columns="8">
0.0100    0.0100    0.0100    0.0100    0.0100    0.0100    0.0100    0.0100
0.0100    0.0100    0.0100    0.0100    0.0100    0.0100    0.0100    0.0100
0.0100    0.0100    0.0100    0.0100    0.0100    0.0100    0.0100    0.0100
0.0100    0.0100    0.0100    0.0100    0.0100    0.0100    0.0100    0.0100
0.0100    0.0100    0.0100    0.0100    0.0100    0.0100    0.0100    0.0100
0.0100    0.0100    0.0100    0.0100    0.0100    0.0100    0.0100    0.0100
0.0100    0.0100    0.0100    0.0100    0.0100    0.0100    0.0100    0.0100
0.0100    0.0100    0.0100    0.0100    0.0100    0.0100    0.0100    0.0100
0.0100    0.0100    0.0100    0.0100    0.0100    0.0100    0.0100    0.0100
0.0100    0.0100    0.0100    0.0100    0.0100    0.0100    0.0100    0.0100
0.0100    0.0100    0.0100    0.0100    0.0100    0.0100    0.0100    0.0100
0.0100    0.0100    0.0100    0.0100    0.0100    0.0100    0.0100    0.0100
0.0100    0.0100    0.0100    0.0100    0.0100    0.0100    0.0100    0.0100
0.0100    0.0100    0.0100    0.0100    0.0100    0.0100    0.0100    0.0100
0.0100    0.0100    0.0100    0.0100    0.0100    0.0100    0.0100    0.0100
0.0100    0.0100    0.0100    0.0100    0.0100    0.0100    0.0100    0.0100
0.0100    0.0100    0.0100    0.0100    0.0100    0.0100    0.0100    0.0100
0.0100    0.0100    0.0100    0.0100    0.0100    0.0100    0.0100    0.0100
0.0100    0.0100    0.0100    0.0100    0.0100    0.0100    0.0100    0.0100
0.0100    0.0100    0.0100    0.0100    0.0100    0.0100    0.0100    0.0100
0.0100    0.0100    0.0100    0.0100    0.0100    0.0100    0.0100    0.0100
0.0100    0.0100    0.0100    0.0100    0.0100    0.0100    0.0100    0.0100
0.0100    0.0100    0.0100    0.0100    0.0100    0.0100    0.0100    0.0100
0.0100    0.0100    0.0100    0.0100    0.0100    0.0100    0.0100    0.0100
0.0100    0.0100    0.0100    0.0100    0.0100    0.0100    0.0100    0.0100
0.0100    0.0100    0.0100    0.0100    0.0100    0.0100    0.0100    0.0100
0.0100    0.0100    0.0100    0.0100    0.0100    0.0100    0.0100    0.0100
0.0100    0.0100    0.0100    0.0100    0.0100    0.0100    0.0100    0.0100
0.0100    0.0100    0.0100    0.0100    0.0100    0.0100    0.0100    0.0100
0.0100    0.0100    0.0100    0.0100    0.0100    0.0100    0.0100    0.0100
0.0100    0.0100    0.0100    0.0100    0.0100    0.0100    0.0100    0.0100
0.0100    0.0100    0.0100    0.0100    0.0100    0.0100    0.0100    0.0100
0.0100    0.0100    0.0100    0.0100    0.0100    0.0100    0.0100    0.0100
0.0100    0.0100    0.0100    0.0100    0.0100    0.0100    0.0100    0.0100
0.0100    0.0100    0.0100    0.0100    0.0100    0.0100    0.0100    0.0100
0.0100    0.0100    0.0100    0.0100    0.0100    0.0100    0.0100    0.0100
0.0100    0.0100    0.0100    0.0100    0.0100    0.0100    0.0100    0.0100
0.0100    0.0100    0.0100    0.0100    0.0100    0.0100    0.0100    0.0100
0.0100    0.0100    0.0100    0.0100    0.0100    0.0100    0.0100    0.0100
0.0100    0.0100    0.0100    0.0100    0.0100    0.0100    0.0100    0.0100
0.0100    0.0100    0.0100    0.0100    0.0100    0.0100    0.0100    0.0100
0.0100    0.0100    0.0100    0.0100    0.0100    0.0100    0.0100    0.0100
0.0100    0.0100    0.0100    0.0100    0.0100    0.0100    0.0100    0.0100
0.0100    0.0100    0.0100    0.0100    0.0100    0.0100    0.0100    0.0100
0.0100    0.0100    0.0100    0.0100    0.0100    0.0100    0.0100    0.0100
0.0100    0.0100    0.0100    0.0100    0.0100    0.0100    0.0100    0.0100
0.0100    0.0100    0.0100    0.0100    0.0100    0.0100    0.0100    0.0100
0.0100    0.0100    0.0100    0.0100    0.0100    0.0100    0.0100    0.0100
0.0100    0.0100    0.0100    0.0100    0.0100    0.0100    0.0100    0.0100
0.0100    0.0100    0.0100    0.0100    0.0100    0.0100    0.0100    0.0100
0.0100    0.0100    0.0100    0.0100    0.0100    0.0100    0.0100    0.0100
0.0100    0.0100    0.0100    0.0100    0.0100    0.0100    0.0100    0.0100
0.0100    0.0100    0.0100    0.0100    0.0100    0.0100    0.0100    0.0100
0.0100    0.0100    0.0100    0.0100    0.0100    0.0100    0.0100    0.0100
0.0100    0.0100    0.0100    0.0100    0.0100    0.0100    0.0100    0.0100
0.0100    0.0100    0.0100    0.0100    0.0100    0.0100    0.0100    0.0100
0.0100    0.0100    0.0100    0.0100    0.0100    0.0100    0.0100    0.0100
0.0100    0.0100    0.0100    0.0100    0.0100    0.0100    0.0100    0.0100
0.0100    0.0100    0.0100    0.0100    0.0100    0.0100    0.0100    0.0100
0.0100    0.0100    0.0100    0.0100    0.0100    0.0100    0.0100    0.0100
0.0100    0.0100    0.0100    0.0100    0.0100    0.0100    0.0100    0.0100
0.0100    0.0100    0.0100    0.0100    0.0100    0.0100    0.0100    0.0100
0.0100    0.0100    0.0100    0.0100    0.0100    0.0100    0.0100    0.0100
0.0100    0.0100    0.0100    0.0100    0.0100    0.0100    0.0100    0.0100
0.0100    0.0100    0.0100    0.0100    0.0100    0.0100    0.0100    0.0100
0.0100    0.0100    0.0100    0.0100    0.0100    0.0100    0.0100    0.0100
0.0100    0.0100    0.0100    0.0100    0.0100    0.0100    0.0100    0.0100
0.0100    0.0100    0.0100    0.0100    0.0100    0.0100    0.0100    0.0100
0.0100    0.0100    0.0100    0.0100    0.0100    0.0100    0.0100    0.0100
0.0100    0.0100    0.0100    0.0100    0.0100    0.0100    0.0100    0.0100
0.0100    0.0100    0.0100    0.0100    0.0100    0.0100    0.0100    0.0100
0.0100    0.0100    0.0100    0.0100    0.0100    0.0100    0.0100    0.0100
0.0100    0.0100    0.0100    0.0100    0.0100    0.0100    0.0100    0.0100
0.0100    0.0100    0.0100    0.0100    0.0100    0.0100    0.0100    0.0100
0.0100    0.0100    0.0100    0.0100    0.0100    0.0100    0.0100    0.0100
</PP_RAB>
</PP_MESH>
<PP_LOCAL type="real"  size="600" columns="4">
-3.6800823314E+01   -3.6800616174E+01   -3.6799995229E+01   -3.6798961898E+01
-3.6797518330E+01   -3.6795667099E+01   -3.6793410789E+01   -3.6790751483E+01
-3.6787690184E+01   -3.6784226169E+01   -3.6780356312E+01   -3.6776074394E+01
-3.6771370410E+01   -3.6766229903E+01   -3.6760633339E+01   -3.6754555532E+01
-3.6747965138E+01   -3.6740824231E+01   -3.6733087955E+01   -3.6724704278E+01
-3.6715613834E+01   -3.6705749868E+01   -3.6695038274E+01   -3.6683397737E+01
-3.6670739967E+01   -3.6656970028E+01   -3.6641986753E+01   -3.6625683246E+01
-3.6607947453E+01   -3.6588662811E+01   -3.6567708948E+01   -3.6544962430E+01
-3.6520297552E+01   -3.6493587145E+01   -3.6464703398E+01   -3.6433518670E+01
-3.6399906293E+01   -3.6363741341E+01   -3.6324901357E+01   -3.6283267030E+01
-3.6238722817E+01   -3.6191157498E+01   -3.6140464674E+01   -3.6086543197E+01
-3.6029297549E+01   -3.5968638167E+01   -3.5904481729E+01   -3.5836751411E+01
-3.5765377125E+01   -3.5690295748E+01   -3.5611451353E+01   -3.5528795453E+01
-3.5442287258E+01   -3.5351893957E+01   -3.5257591021E+01   -3.5159362521E+01
-3.5057201468E+01   -3.4951110153E+01   -3.4841100480E+01   -3.4727194290E+01
-3.4609423632E+01   -3.4487831001E+01   -3.4362469490E+01   -3.4233402866E+01
-3.4100705537E+01   -3.3964462416E+01   -3.3824768658E+01   -3.3681729272E+01
-3.3535458619E+01   -3.3386079786E+01   -3.3233723868E+01   -3.3078529148E+01
-3.2920640218E+01   -3.2760207044E+01   -3.2597384007E+01   -3.2432328921E+01
-3.2265202073E+01   -3.2096165271E+01   -3.1925380930E+01   -3.1753011197E+01
-3.1579217117E+01   -3.1404157843E+01   -3.1227989886E+01   -3.1050866401E+01
-3.0872936501E+01   -3.0694344589E+01   -3.0515229713E+01   -3.0335724919E+01
-3.0155956610E+01   -2.9976043906E+01   -2.9796098005E+01   -2.9616221541E+01
-2.9436507962E+01   -2.9257040933E+01   -2.9077893776E+01   -2.8899128986E+01
-2.8720797834E+01   -2.8542940106E+01   -2.8365584006E+01   -2.8188746259E+01
-2.8012432462E+01   -2.7836637709E+01   -2.7661347511E+01   -2.7486539042E+01
-2.7312182693E+01   -2.7138243931E+01   -2.6964685416E+01   -2.6791469321E+01
-2.6618559782E+01   -2.6445925387E+01   -2.6273541608E+01   -2.6101393064E+01
-2.5929475534E+01   -2.5757797619E+01   -2.5586381996E+01   -2.5415266207E+01
-2.5244502961E+01   -2.5074159936E+01   -2.4904319098E+01   -2.4735075542E+01
-2.4566535895E+01   -2.4398816274E+01   -2.4232039843E+01   -2.4066333941E+01
-2.3901826797E+01   -2.3738643828E+01   -2.3576903523E+01   -2.3416712998E+01
-2.3258163276E+01   -2.3101324505E+01   -2.2946241395E+01   -2.2792929164E+01
-2.2641370511E+01   -2.2491513960E+01   -2.2343274156E+01   -2.2196534320E+01
-2.2051151045E+01   -2.1906961500E+01   -2.1763792361E+01   -2.1621470226E+01
-2.1479832257E+01   -2.1338736510E+01   -2.1198070518E+01   -2.1057757902E+01
-2.0917761965E+01   -2.0778086400E+01   -2.0638773198E+01   -2.0499897985E+01
-2.0361563698E+01   -2.0223893104E+01   -2.0087021001E+01   -1.9951086708E+01
-1.9816227419E+01   -1.9682572574E+01   -1.9550239757E+01   -1.9419331681E+01
-1.9289934664E+01   -1.9162118007E+01   -1.9035934322E+01   -1.8911420558E+01
-1.8788599087E+01   -1.8667479502E+01   -1.8548061225E+01   -1.8430335818E+01
-1.8314289234E+01   -1.8199903534E+01   -1.8087157804E+01   -1.7976028946E+01
-1.7866493049E+01   -1.7758525155E+01   -1.7652096046E+01   -1.7547173806E+01
-1.7443727035E+01   -1.7341721746E+01   -1.7241130219E+01   -1.7141923378E+01
-1.7044024575E+01   -1.6947318325E+01   -1.6851714823E+01   -1.6757168917E+01
-1.6663697703E+01   -1.6571411511E+01   -1.6480368255E+01   -1.6390398100E+01
-1.6301314864E+01   -1.6213131759E+01   -1.6125896499E+01   -1.6039610001E+01
-1.5954255237E+01   -1.5869815749E+01   -1.5786274349E+01   -1.5703613948E+01
-1.5621824080E+01   -1.5540895083E+01   -1.5460813403E+01   -1.5381565620E+01
-1.5303138853E+01   -1.5225520453E+01   -1.5148697719E+01   -1.5072657917E+01
-1.4997388410E+01   -1.4922876673E+01   -1.4849110302E+01   -1.4776077043E+01
-1.4703764813E+01   -1.4632161723E+01   -1.4561256100E+01   -1.4491036504E+01
-1.4421491744E+01   -1.4352610896E+01   -1.4284383312E+01   -1.4216798630E+01
-1.4149846783E+01   -1.4083518001E+01   -1.4017802816E+01   -1.3952692059E+01
-1.3888176857E+01   -1.3824248632E+01   -1.3760899087E+01   -1.3698120204E+01
-1.3635904230E+01   -1.3574243664E+01   -1.3513131245E+01   -1.3452559938E+01
-1.3392522918E+01   -1.3333013556E+01   -1.3274025399E+01   -1.3215552157E+01
-1.3157587690E+01   -1.3100125986E+01   -1.3043161151E+01   -1.2986687394E+01
-1.2930699012E+01   -1.2875190380E+01   -1.2820155939E+01   -1.2765590184E+01
-1.2711487660E+01   -1.2657842951E+01   -1.2604650677E+01   -1.2551905487E+01
-1.2499602056E+01   -1.2447735086E+01   -1.2396299303E+01   -1.2345289455E+01
-1.2294700321E+01   -1.2244526703E+01   -1.2194763440E+01   -1.2145405403E+01
-1.2096447505E+01   -1.2047884704E+01   -1.1999712006E+01   -1.1951924475E+01
-1.1904517233E+01   -1.1857485469E+01   -1.1810824443E+01   -1.1764529490E+01
-1.1718596023E+01   -1.1673019540E+01   -1.1627795627E+01   -1.1582919975E+01
-1.1538388348E+01   -1.1494196541E+01   -1.1450340458E+01   -1.1406816109E+01
-1.1363619965E+01   -1.1320748392E+01   -1.1278197768E+01   -1.1235963974E+01
-1.1194042890E+01   -1.1152430977E+01   -1.1111123111E+01   -1.1070115058E+01
-1.1029402050E+01   -1.0988984180E+01   -1.0948862979E+01   -1.0909040228E+01
-1.0869514501E+01   -1.0830278827E+01   -1.0791326942E+01   -1.0752651458E+01
-1.0714250959E+01   -1.0676122821E+01   -1.0638265540E+01   -1.0600676022E+01
-1.0563351261E+01   -1.0526288358E+01   -1.0489484491E+01   -1.0452937036E+01
-1.0416643323E+01   -1.0380600718E+01   -1.0344806626E+01   -1.0309258489E+01
-1.0273953782E+01   -1.0238890016E+01   -1.0204064734E+01   -1.0169475513E+01
-1.0135119962E+01   -1.0100995723E+01   -1.0067100469E+01   -1.0033431905E+01
-9.9999877647E+00   -9.9667658134E+00   -9.9337638454E+00   -9.9009796841E+00
-9.8684111813E+00   -9.8360562172E+00   -9.8039126995E+00   -9.7719785630E+00
-9.7402517696E+00   -9.7087303071E+00   -9.6774121896E+00   -9.6462954563E+00
-9.6153781720E+00   -9.5846584258E+00   -9.5541343311E+00   -9.5238040255E+00
-9.4936656700E+00   -9.4637174485E+00   -9.4339575682E+00   -9.4043842583E+00
-9.3749957704E+00   -9.3457903778E+00   -9.3167663752E+00   -9.2879220782E+00
-9.2592558235E+00   -9.2307659681E+00   -9.2024508891E+00   -9.1743089833E+00
-9.1463386675E+00   -9.1185383772E+00   -9.0909065671E+00   -9.0634417105E+00
-9.0361422992E+00   -9.0090068429E+00   -8.9820338693E+00   -8.9552219236E+00
-8.9285695682E+00   -8.9020753828E+00   -8.8757379636E+00   -8.8495559236E+00
-8.8235278920E+00   -8.7976525141E+00   -8.7719284509E+00   -8.7463543792E+00
-8.7209289911E+00   -8.6956509938E+00   -8.6705191095E+00   -8.6455320752E+00
-8.6206886422E+00   -8.5959875762E+00   -8.5714276572E+00   -8.5470076787E+00
-8.5227264483E+00   -8.4985827869E+00   -8.4745755287E+00   -8.4507035210E+00
-8.4269656243E+00   -8.4033607116E+00   -8.3798876685E+00   -8.3565453933E+00
-8.3333327961E+00   -8.3102487994E+00   -8.2872923376E+00   -8.2644623566E+00
-8.2417578140E+00   -8.2191776790E+00   -8.1967209317E+00   -8.1743865638E+00
-8.1521735774E+00   -8.1300809858E+00   -8.1081078129E+00   -8.0862530931E+00
-8.0645158710E+00   -8.0428952018E+00   -8.0213901504E+00   -7.9999997921E+00
-7.9787232117E+00   -7.9575595038E+00   -7.9365077727E+00   -7.9155671320E+00
-7.8947367047E+00   -7.8740156230E+00   -7.8534030281E+00   -7.8328980703E+00
-7.8124999088E+00   -7.7922077113E+00   -7.7720206543E+00   -7.7519379228E+00
-7.7319587101E+00   -7.7120822179E+00   -7.6923076561E+00   -7.6726342426E+00
-7.6530612033E+00   -7.6335877720E+00   -7.6142131903E+00   -7.5949367074E+00
-7.5757575801E+00   -7.5566750729E+00   -7.5376884573E+00   -7.5187970125E+00
-7.5000000246E+00   -7.4812967869E+00   -7.4626866000E+00   -7.4441687710E+00
-7.4257426142E+00   -7.4074074505E+00   -7.3891626075E+00   -7.3710074196E+00
-7.3529412275E+00   -7.3349633783E+00   -7.3170732258E+00   -7.2992701297E+00
-7.2815534563E+00   -7.2639225777E+00   -7.2463768722E+00   -7.2289157241E+00
-7.2115385237E+00   -7.1942446669E+00   -7.1770335557E+00   -7.1599045977E+00
-7.1428572059E+00   -7.1258907992E+00   -7.1090048019E+00   -7.0921986436E+00
-7.0754717595E+00   -7.0588235901E+00   -7.0422535809E+00   -7.0257611829E+00
-7.0093458520E+00   -6.9930070493E+00   -6.9767442410E+00   -6.9605568981E+00
-6.9444444964E+00   -6.9284065168E+00   -6.9124424449E+00   -6.8965517709E+00
-6.8807339898E+00   -6.8649886012E+00   -6.8493151093E+00   -6.8337130228E+00
-6.8181818547E+00   -6.8027211228E+00   -6.7873303488E+00   -6.7720090591E+00
-6.7567567842E+00   -6.7415730588E+00   -6.7264574218E+00   -6.7114094162E+00
-6.6964285892E+00   -6.6815144919E+00   -6.6666666795E+00   -6.6518847110E+00
-6.6371681494E+00   -6.6225165616E+00   -6.6079295182E+00   -6.5934065937E+00
-6.5789473663E+00   -6.5645514177E+00   -6.5502183335E+00   -6.5359477029E+00
-6.5217391185E+00   -6.5075921765E+00   -6.4935064768E+00   -6.4794816224E+00
-6.4655172200E+00   -6.4516128796E+00   -6.4377682145E+00   -6.4239828414E+00
-6.4102563801E+00   -6.3965884539E+00   -6.3829786891E+00   -6.3694267153E+00
-6.3559321651E+00   -6.3424946744E+00   -6.3291138821E+00   -6.3157894299E+00
-6.3025209629E+00   -6.2893081290E+00   -6.2761505789E+00   -6.2630479665E+00
-6.2499999483E+00   -6.2370061839E+00   -6.2240663356E+00   -6.2111800685E+00
-6.1983470506E+00   -6.1855669523E+00   -6.1728394471E+00   -6.1601642110E+00
-6.1475409227E+00   -6.1349692634E+00   -6.1224489171E+00   -6.1099795703E+00
-6.0975609119E+00   -6.0851926335E+00   -6.0728744293E+00   -6.0606059956E+00
-6.0483870315E+00   -6.0362172383E+00   -6.0240963199E+00   -6.0120239824E+00
-5.9999999343E+00   -5.9880238865E+00   -5.9760955522E+00   -5.9642146466E+00
-5.9523808876E+00   -5.9405939950E+00   -5.9288536911E+00   -5.9171597000E+00
-5.9055117484E+00   -5.8939095648E+00   -5.8823528800E+00   -5.8708414270E+00
-5.8593749407E+00   -5.8479531580E+00   -5.8365758182E+00   -5.8252426624E+00
-5.8139534335E+00   -5.8027078768E+00   -5.7915057393E+00   -5.7803467700E+00
-5.7692307200E+00   -5.7581573419E+00   -5.7471263907E+00   -5.7361376229E+00
-5.7251907971E+00   -5.7142856735E+00   -5.7034220143E+00   -5.6925995835E+00
-5.6818181469E+00   -5.6710774718E+00   -5.6603773277E+00   -5.6497174855E+00
-5.6390977180E+00   -5.6285177995E+00   -5.6179775063E+00   -5.6074766161E+00
-5.5970149084E+00   -5.5865921643E+00   -5.5762081665E+00   -5.5658626993E+00
-5.5555555488E+00   -5.5452865024E+00   -5.5350553491E+00   -5.5248618798E+00
-5.5147058865E+00   -5.5045871629E+00   -5.4945055043E+00   -5.4844607074E+00
-5.4744525704E+00   -5.4644808929E+00   -5.4545454761E+00   -5.4446461226E+00
-5.4347826364E+00   -5.4249548228E+00   -5.4151624887E+00   -5.4054054424E+00
-5.3956834934E+00   -5.3859964527E+00   -5.3763441326E+00   -5.3667263467E+00
-5.3571429102E+00   -5.3475936392E+00   -5.3380783514E+00   -5.3285968657E+00
-5.3191490024E+00   -5.3097345828E+00   -5.3003534298E+00   -5.2910053672E+00
-5.2816902204E+00   -5.2724078158E+00   -5.2631579811E+00   -5.2539405451E+00
-5.2447553379E+00   -5.2356021908E+00   -5.2264809362E+00   -5.2173914077E+00
-5.2083334401E+00   -5.1993068693E+00   -5.1903115323E+00   -5.1813472672E+00
-5.1724139135E+00   -5.1635113114E+00   -5.1546393025E+00   -5.1457977292E+00
-5.1369864354E+00   -5.1282052656E+00   -5.1194540657E+00   -5.1107326825E+00
-5.1020409638E+00   -5.0933787587E+00   -5.0847459169E+00   -5.0761422895E+00
-5.0675677285E+00   -5.0590220866E+00   -5.0505052180E+00   -5.0420169775E+00
-5.0335572210E+00   -5.0251258055E+00   -5.0167225886E+00   -5.0083474292E+00
</PP_LOCAL>
<PP_NONLOCAL>
<PP_BETA.1
type="real"
size="600"
columns="4"
index="1"
angular_momentum="0"
cutoff_radius_index=" 184"
cutoff_radius="    1.8300000000E+00" >
4.8074322301E-12    3.6526386457E-02    7.3034844832E-02    1.0950738902E-01
1.4592591727E-01    1.8227215531E-01    2.1852760072E-01    2.5467346879E-01
2.9069064036E-01    3.2655961197E-01    3.6226044869E-01    3.9777274002E-01
4.3307555912E-01    4.6814742586E-01    5.0296627384E-01    5.3750942185E-01
5.7175354994E-01    6.0567468047E-01    6.3924816437E-01    6.7244867280E-01
7.0525019452E-01    7.3762603914E-01    7.6954884634E-01    8.0099060136E-01
8.3192265672E-01    8.6231576042E-01    8.9214009050E-01    9.2136529623E-01
9.4996054568E-01    9.7789457979E-01    1.0051357729E+00    1.0316521994E+00
1.0574117068E+00    1.0823819946E+00    1.1065306988E+00    1.1298254822E+00
1.1522341301E+00    1.1737246502E+00    1.1942653779E+00    1.2138250849E+00
1.2323730927E+00    1.2498793881E+00    1.2663147423E+00    1.2816508320E+00
1.2958603623E+00    1.3089171904E+00    1.3207964504E+00    1.3314746773E+00
1.3409299308E+00    1.3491419170E+00    1.3560921091E+00    1.3617638640E+00
1.3661425364E+00    1.3692155883E+00    1.3709726934E+00    1.3714058366E+00
1.3705094068E+00    1.3682802828E+00    1.3647179117E+00    1.3598243795E+00
1.3536044726E+00    1.3460657299E+00    1.3372184855E+00    1.3270759011E+00
1.3156539869E+00    1.3029716128E+00    1.2890505065E+00    1.2739152416E+00
1.2575932125E+00    1.2401145975E+00    1.2215123106E+00    1.2018219395E+00
1.1810816733E+00    1.1593322167E+00    1.1366166933E+00    1.1129805365E+00
1.0884713701E+00    1.0631388775E+00    1.0370346603E+00    1.0102120876E+00
9.8272613593E-01    9.5463322005E-01    9.2599101675E-01    8.9685828097E-01
8.6729465593E-01    8.3736047789E-01    8.0711657639E-01    7.7662407121E-01
7.4594416669E-01    7.1513794478E-01    6.8426615762E-01    6.5338902078E-01
6.2256600840E-01    5.9185565096E-01    5.6131533711E-01    5.3100112033E-01
5.0096753166E-01    4.7126739937E-01    4.4195167659E-01    4.1306927789E-01
3.8466692561E-01    3.5678900683E-01    3.2947744175E-01    3.0277156421E-01
2.7670801493E-01    2.5132064818E-01    2.2664045221E-01    2.0269548396E-01
1.7951081837E-01    1.5710851253E-01    1.3550758471E-01    1.1472400861E-01
9.4770722464E-02    7.5657653137E-02    5.7391754893E-02    3.9977062561E-02
2.3414758723E-02    7.7032544419E-03   -7.1617169906E-03   -2.1186993933E-02
-3.4381868588E-02   -4.6757958268E-02   -5.8329066561E-02   -6.9111035273E-02
-7.9121588085E-02   -8.8380166876E-02   -9.6907761734E-02   -1.0472673568E-01
-1.1186064518E-01   -1.1833405744E-01   -1.2417236566E-01   -1.2940160324E-01
-1.3404825802E-01   -1.3813908757E-01   -1.4170093654E-01   -1.4476055716E-01
-1.4734443360E-01   -1.4947861134E-01   -1.5118853217E-01   -1.5249887579E-01
-1.5343340855E-01   -1.5401484015E-01   -1.5426468873E-01   -1.5420315498E-01
-1.5384900557E-01   -1.5321946643E-01   -1.5233012588E-01   -1.5119484815E-01
-1.4982569695E-01   -1.4823286963E-01   -1.4642464137E-01   -1.4440731972E-01
-1.4218520889E-01   -1.3976058387E-01   -1.3713367382E-01   -1.3430265416E-01
-1.3126364738E-01   -1.2801073218E-01   -1.2453595947E-01   -1.2082940465E-01
-1.1687909879E-01   -1.1267113030E-01   -1.0819000277E-01   -1.0341892822E-01
-9.8340222086E-02   -9.2935509221E-02   -8.7185730664E-02   -8.1071251986E-02
-7.4571964669E-02   -6.7667363743E-02   -6.0336626378E-02   -5.2518713321E-02
-4.4275512502E-02   -3.5869267967E-02   -2.6669453447E-02   -1.5518235367E-02
-4.4467781814E-03    1.6171152144E-03    1.5457301143E-03   -2.3888336731E-04
-4.5210656434E-04    1.5619881042E-05    6.7674782805E-05    3.4320859080E-06
0. 0. 0. 0.
0. 0. 0. 0.
0. 0. 0. 0.
0. 0. 0. 0.
0. 0. 0. 0.
0. 0. 0. 0.
0. 0. 0. 0.
0. 0. 0. 0.
0. 0. 0. 0.
0. 0. 0. 0.
0. 0. 0. 0.
0. 0. 0. 0.
0. 0. 0. 0.
0. 0. 0. 0.
0. 0. 0. 0.
0. 0. 0. 0.
0. 0. 0. 0.
0. 0. 0. 0.
0. 0. 0. 0.
0. 0. 0. 0.
0. 0. 0. 0.
0. 0. 0. 0.
0. 0. 0. 0.
0. 0. 0. 0.
0. 0. 0. 0.
0. 0. 0. 0.
0. 0. 0. 0.
0. 0. 0. 0.
0. 0. 0. 0.
0. 0. 0. 0.
0. 0. 0. 0.
0. 0. 0. 0.
0. 0. 0. 0.
0. 0. 0. 0.
0. 0. 0. 0.
0. 0. 0. 0.
0. 0. 0. 0.
0. 0. 0. 0.
0. 0. 0. 0.
0. 0. 0. 0.
0. 0. 0. 0.
0. 0. 0. 0.
0. 0. 0. 0.
0. 0. 0. 0.
0. 0. 0. 0.
0. 0. 0. 0.
0. 0. 0. 0.
0. 0. 0. 0.
0. 0. 0. 0.
0. 0. 0. 0.