<UPF version="2.0.1">
<PP_INFO>
NOTE!!!!
This file is trimmed with a mesh size of 600 from the original version.
Trimming performed at 2023-03-31 09:10:05.023791 by trim_upf.py version 0.1.0

This pseudopotential file has been produced using the code
ONCVPSP  (Optimized Norm-Conservinng Vanderbilt PSeudopotential)
scalar-relativistic version 3.3.0 08/16/2017 by D. R. Hamann
The code is available through a link at URL www.mat-simresearch.com.
Documentation with the package provides a full discription of the
input data below.
While it is not required under the terms of the GNU GPL, it is
suggested that you cite D. R. Hamann, Phys. Rev. B 88, 085117 (2013)
in any publication using these pseudopotentials.
<PP_INPUTFILE>
# ATOM AND REFERENCE CONFIGURATION
# atsym  z   nc   nv     iexc    psfile
Au 79.00   10    4       4      upf
#
#   n    l    f        energy (Ha)
1    0    2.00
2    0    2.00
2    1    6.00
3    0    2.00
3    1    6.00
3    2   10.00
4    0    2.00
4    1    6.00
4    2   10.00
4    3   14.00
5    0    2.00
5    1    6.00
5    2   10.00
6    0    1.00
#
# PSEUDOPOTENTIAL AND OPTIMIZATION
# lmax
3
#
#   l,   rc,      ep,       ncon, nbas, qcut
0   1.45000  -3.98249    4    8   8.60000
1   1.55000  -2.19696    4    8   8.40000
2   1.55000  -0.25273    4    8   8.40000
3   1.60000   0.10000    4    8   6.80000
#
# LOCAL POTENTIAL
# lloc, lpopt,  rc(5),   dvloc0
4    3   1.40000      0.00000
#
# VANDERBILT-KLEINMAN-BYLANDER PROJECTORs
# l, nproj, debl
0    2   3.77073
1    2   2.50000
2    2   1.50000
3    1   1.50000
#
# MODEL CORE CHARGE
# icmod, fcfact, rcfact
3   5.00000   1.37000
#
# LOG DERIVATIVE ANALYSIS
# epsh1, epsh2, depsh
-14.00   12.00    0.02
#
# OUTPUT GRID
# rlmax, drl
5.00    0.01
#
# TEST CONFIGURATIONS
# ncnf
0
# nvcnf
#   n    l    f
</PP_INPUTFILE>
</PP_INFO>
<!--                               -->
<!-- END OF HUMAN READABLE SECTION -->
<!--                               -->
<PP_HEADER
generated="Generated using ONCVPSP code by D. R. Hamann"
author="anonymous"
date="171031"
comment=""
element="Au"
pseudo_type="NC"
relativistic="scalar"
is_ultrasoft="F"
is_paw="F"
is_coulomb="F"
has_so="F"
has_wfc="F"
has_gipaw="F"
core_correction="T"
functional="PBE"
z_valence="   19.00"
total_psenergy="  -2.75553579896E+02"
rho_cutoff="   1.35500000000E+01"
l_max="3"
l_local="-1"
mesh_size="   600"
number_of_wfc="4"
number_of_proj="7"/>
<PP_MESH>
<PP_R type="real"  size="600" columns="8">
0.0000    0.0100    0.0200    0.0300    0.0400    0.0500    0.0600    0.0700
0.0800    0.0900    0.1000    0.1100    0.1200    0.1300    0.1400    0.1500
0.1600    0.1700    0.1800    0.1900    0.2000    0.2100    0.2200    0.2300
0.2400    0.2500    0.2600    0.2700    0.2800    0.2900    0.3000    0.3100
0.3200    0.3300    0.3400    0.3500    0.3600    0.3700    0.3800    0.3900
0.4000    0.4100    0.4200    0.4300    0.4400    0.4500    0.4600    0.4700
0.4800    0.4900    0.5000    0.5100    0.5200    0.5300    0.5400    0.5500
0.5600    0.5700    0.5800    0.5900    0.6000    0.6100    0.6200    0.6300
0.6400    0.6500    0.6600    0.6700    0.6800    0.6900    0.7000    0.7100
0.7200    0.7300    0.7400    0.7500    0.7600    0.7700    0.7800    0.7900
0.8000    0.8100    0.8200    0.8300    0.8400    0.8500    0.8600    0.8700
0.8800    0.8900    0.9000    0.9100    0.9200    0.9300    0.9400    0.9500
0.9600    0.9700    0.9800    0.9900    1.0000    1.0100    1.0200    1.0300
1.0400    1.0500    1.0600    1.0700    1.0800    1.0900    1.1000    1.1100
1.1200    1.1300    1.1400    1.1500    1.1600    1.1700    1.1800    1.1900
1.2000    1.2100    1.2200    1.2300    1.2400    1.2500    1.2600    1.2700
1.2800    1.2900    1.3000    1.3100    1.3200    1.3300    1.3400    1.3500
1.3600    1.3700    1.3800    1.3900    1.4000    1.4100    1.4200    1.4300
1.4400    1.4500    1.4600    1.4700    1.4800    1.4900    1.5000    1.5100
1.5200    1.5300    1.5400    1.5500    1.5600    1.5700    1.5800    1.5900
1.6000    1.6100    1.6200    1.6300    1.6400    1.6500    1.6600    1.6700
1.6800    1.6900    1.7000    1.7100    1.7200    1.7300    1.7400    1.7500
1.7600    1.7700    1.7800    1.7900    1.8000    1.8100    1.8200    1.8300
1.8400    1.8500    1.8600    1.8700    1.8800    1.8900    1.9000    1.9100
1.9200    1.9300    1.9400    1.9500    1.9600    1.9700    1.9800    1.9900
2.0000    2.0100    2.0200    2.0300    2.0400    2.0500    2.0600    2.0700
2.0800    2.0900    2.1000    2.1100    2.1200    2.1300    2.1400    2.1500
2.1600    2.1700    2.1800    2.1900    2.2000    2.2100    2.2200    2.2300
2.2400    2.2500    2.2600    2.2700    2.2800    2.2900    2.3000    2.3100
2.3200    2.3300    2.3400    2.3500    2.3600    2.3700    2.3800    2.3900
2.4000    2.4100    2.4200    2.4300    2.4400    2.4500    2.4600    2.4700
2.4800    2.4900    2.5000    2.5100    2.5200    2.5300    2.5400    2.5500
2.5600    2.5700    2.5800    2.5900    2.6000    2.6100    2.6200    2.6300
2.6400    2.6500    2.6600    2.6700    2.6800    2.6900    2.7000    2.7100
2.7200    2.7300    2.7400    2.7500    2.7600    2.7700    2.7800    2.7900
2.8000    2.8100    2.8200    2.8300    2.8400    2.8500    2.8600    2.8700
2.8800    2.8900    2.9000    2.9100    2.9200    2.9300    2.9400    2.9500
2.9600    2.9700    2.9800    2.9900    3.0000    3.0100    3.0200    3.0300
3.0400    3.0500    3.0600    3.0700    3.0800    3.0900    3.1000    3.1100
3.1200    3.1300    3.1400    3.1500    3.1600    3.1700    3.1800    3.1900
3.2000    3.2100    3.2200    3.2300    3.2400    3.2500    3.2600    3.2700
3.2800    3.2900    3.3000    3.3100    3.3200    3.3300    3.3400    3.3500
3.3600    3.3700    3.3800    3.3900    3.4000    3.4100    3.4200    3.4300
3.4400    3.4500    3.4600    3.4700    3.4800    3.4900    3.5000    3.5100
3.5200    3.5300    3.5400    3.5500    3.5600    3.5700    3.5800    3.5900
3.6000    3.6100    3.6200    3.6300    3.6400    3.6500    3.6600    3.6700
3.6800    3.6900    3.7000    3.7100    3.7200    3.7300    3.7400    3.7500
3.7600    3.7700    3.7800    3.7900    3.8000    3.8100    3.8200    3.8300
3.8400    3.8500    3.8600    3.8700    3.8800    3.8900    3.9000    3.9100
3.9200    3.9300    3.9400    3.9500    3.9600    3.9700    3.9800    3.9900
4.0000    4.0100    4.0200    4.0300    4.0400    4.0500    4.0600    4.0700
4.0800    4.0900    4.1000    4.1100    4.1200    4.1300    4.1400    4.1500
4.1600    4.1700    4.1800    4.1900    4.2000    4.2100    4.2200    4.2300
4.2400    4.2500    4.2600    4.2700    4.2800    4.2900    4.3000    4.3100
4.3200    4.3300    4.3400    4.3500    4.3600    4.3700    4.3800    4.3900
4.4000    4.4100    4.4200    4.4300    4.4400    4.4500    4.4600    4.4700
4.4800    4.4900    4.5000    4.5100    4.5200    4.5300    4.5400    4.5500
4.5600    4.5700    4.5800    4.5900    4.6000    4.6100    4.6200    4.6300
4.6400    4.6500    4.6600    4.6700    4.6800    4.6900    4.7000    4.7100
4.7200    4.7300    4.7400    4.7500    4.7600    4.7700    4.7800    4.7900
4.8000    4.8100    4.8200    4.8300    4.8400    4.8500    4.8600    4.8700
4.8800    4.8900    4.9000    4.9100    4.9200    4.9300    4.9400    4.9500
4.9600    4.9700    4.9800    4.9900    5.0000    5.0100    5.0200    5.0300
5.0400    5.0500    5.0600    5.0700    5.0800    5.0900    5.1000    5.1100
5.1200    5.1300    5.1400    5.1500    5.1600    5.1700    5.1800    5.1900
5.2000    5.2100    5.2200    5.2300    5.2400    5.2500    5.2600    5.2700
5.2800    5.2900    5.3000    5.3100    5.3200    5.3300    5.3400    5.3500
5.3600    5.3700    5.3800    5.3900    5.4000    5.4100    5.4200    5.4300
5.4400    5.4500    5.4600    5.4700    5.4800    5.4900    5.5000    5.5100
5.5200    5.5300    5.5400    5.5500    5.5600    5.5700    5.5800    5.5900
5.6000    5.6100    5.6200    5.6300    5.6400    5.6500    5.6600    5.6700
5.6800    5.6900    5.7000    5.7100    5.7200    5.7300    5.7400    5.7500
5.7600    5.7700    5.7800    5.7900    5.8000    5.8100    5.8200    5.8300
5.8400    5.8500    5.8600    5.8700    5.8800    5.8900    5.9000    5.9100
5.9200    5.9300    5.9400    5.9500    5.9600    5.9700    5.9800    5.9900
</PP_R>
<PP_RAB type="real"  size="600" columns="8">
0.0100    0.0100    0.0100    0.0100    0.0100    0.0100    0.0100    0.0100
0.0100    0.0100    0.0100    0.0100    0.0100    0.0100    0.0100    0.0100
0.0100    0.0100    0.0100    0.0100    0.0100    0.0100    0.0100    0.0100
0.0100    0.0100    0.0100    0.0100    0.0100    0.0100    0.0100    0.0100
0.0100    0.0100    0.0100    0.0100    0.0100    0.0100    0.0100    0.0100
0.0100    0.0100    0.0100    0.0100    0.0100    0.0100    0.0100    0.0100
0.0100    0.0100    0.0100    0.0100    0.0100    0.0100    0.0100    0.0100
0.0100    0.0100    0.0100    0.0100    0.0100    0.0100    0.0100    0.0100
0.0100    0.0100    0.0100    0.0100    0.0100    0.0100    0.0100    0.0100
0.0100    0.0100    0.0100    0.0100    0.0100    0.0100    0.0100    0.0100
0.0100    0.0100    0.0100    0.0100    0.0100    0.0100    0.0100    0.0100
0.0100    0.0100    0.0100    0.0100    0.0100    0.0100    0.0100    0.0100
0.0100    0.0100    0.0100    0.0100    0.0100    0.0100    0.0100    0.0100
0.0100    0.0100    0.0100    0.0100    0.0100    0.0100    0.0100    0.0100
0.0100    0.0100    0.0100    0.0100    0.0100    0.0100    0.0100    0.0100
0.0100    0.0100    0.0100    0.0100    0.0100    0.0100    0.0100    0.0100
0.0100    0.0100    0.0100    0.0100    0.0100    0.0100    0.0100    0.0100
0.0100    0.0100    0.0100    0.0100    0.0100    0.0100    0.0100    0.0100
0.0100    0.0100    0.0100    0.0100    0.0100    0.0100    0.0100    0.0100
0.0100    0.0100    0.0100    0.0100    0.0100    0.0100    0.0100    0.0100
0.0100    0.0100    0.0100    0.0100    0.0100    0.0100    0.0100    0.0100
0.0100    0.0100    0.0100    0.0100    0.0100    0.0100    0.0100    0.0100
0.0100    0.0100    0.0100    0.0100    0.0100    0.0100    0.0100    0.0100
0.0100    0.0100    0.0100    0.0100    0.0100    0.0100    0.0100    0.0100
0.0100    0.0100    0.0100    0.0100    0.0100    0.0100    0.0100    0.0100
0.0100    0.0100    0.0100    0.0100    0.0100    0.0100    0.0100    0.0100
0.0100    0.0100    0.0100    0.0100    0.0100    0.0100    0.0100    0.0100
0.0100    0.0100    0.0100    0.0100    0.0100    0.0100    0.0100    0.0100
0.0100    0.0100    0.0100    0.0100    0.0100    0.0100    0.0100    0.0100
0.0100    0.0100    0.0100    0.0100    0.0100    0.0100    0.0100    0.0100
0.0100    0.0100    0.0100    0.0100    0.0100    0.0100    0.0100    0.0100
0.0100    0.0100    0.0100    0.0100    0.0100    0.0100    0.0100    0.0100
0.0100    0.0100    0.0100    0.0100    0.0100    0.0100    0.0100    0.0100
0.0100    0.0100    0.0100    0.0100    0.0100    0.0100    0.0100    0.0100
0.0100    0.0100    0.0100    0.0100    0.0100    0.0100    0.0100    0.0100
0.0100    0.0100    0.0100    0.0100    0.0100    0.0100    0.0100    0.0100
0.0100    0.0100    0.0100    0.0100    0.0100    0.0100    0.0100    0.0100
0.0100    0.0100    0.0100    0.0100    0.0100    0.0100    0.0100    0.0100
0.0100    0.0100    0.0100    0.0100    0.0100    0.0100    0.0100    0.0100
0.0100    0.0100    0.0100    0.0100    0.0100    0.0100    0.0100    0.0100
0.0100    0.0100    0.0100    0.0100    0.0100    0.0100    0.0100    0.0100
0.0100    0.0100    0.0100    0.0100    0.0100    0.0100    0.0100    0.0100
0.0100    0.0100    0.0100    0.0100    0.0100    0.0100    0.0100    0.0100
0.0100    0.0100    0.0100    0.0100    0.0100    0.0100    0.0100    0.0100
0.0100    0.0100    0.0100    0.0100    0.0100    0.0100    0.0100    0.0100
0.0100    0.0100    0.0100    0.0100    0.0100    0.0100    0.0100    0.0100
0.0100    0.0100    0.0100    0.0100    0.0100    0.0100    0.0100    0.0100
0.0100    0.0100    0.0100    0.0100    0.0100    0.0100    0.0100    0.0100
0.0100    0.0100    0.0100    0.0100    0.0100    0.0100    0.0100    0.0100
0.0100    0.0100    0.0100    0.0100    0.0100    0.0100    0.0100    0.0100
0.0100    0.0100    0.0100    0.0100    0.0100    0.0100    0.0100    0.0100
0.0100    0.0100    0.0100    0.0100    0.0100    0.0100    0.0100    0.0100
0.0100    0.0100    0.0100    0.0100    0.0100    0.0100    0.0100    0.0100
0.0100    0.0100    0.0100    0.0100    0.0100    0.0100    0.0100    0.0100
0.0100    0.0100    0.0100    0.0100    0.0100    0.0100    0.0100    0.0100
0.0100    0.0100    0.0100    0.0100    0.0100    0.0100    0.0100    0.0100
0.0100    0.0100    0.0100    0.0100    0.0100    0.0100    0.0100    0.0100
0.0100    0.0100    0.0100    0.0100    0.0100    0.0100    0.0100    0.0100
0.0100    0.0100    0.0100    0.0100    0.0100    0.0100    0.0100    0.0100
0.0100    0.0100    0.0100    0.0100    0.0100    0.0100    0.0100    0.0100
0.0100    0.0100    0.0100    0.0100    0.0100    0.0100    0.0100    0.0100
0.0100    0.0100    0.0100    0.0100    0.0100    0.0100    0.0100    0.0100
0.0100    0.0100    0.0100    0.0100    0.0100    0.0100    0.0100    0.0100
0.0100    0.0100    0.0100    0.0100    0.0100    0.0100    0.0100    0.0100
0.0100    0.0100    0.0100    0.0100    0.0100    0.0100    0.0100    0.0100
0.0100    0.0100    0.0100    0.0100    0.0100    0.0100    0.0100    0.0100
0.0100    0.0100    0.0100    0.0100    0.0100    0.0100    0.0100    0.0100
0.0100    0.0100    0.0100    0.0100    0.0100    0.0100    0.0100    0.0100
0.0100    0.0100    0.0100    0.0100    0.0100    0.0100    0.0100    0.0100
0.0100    0.0100    0.0100    0.0100    0.0100    0.0100    0.0100    0.0100
0.0100    0.0100    0.0100    0.0100    0.0100    0.0100    0.0100    0.0100
0.0100    0.0100    0.0100    0.0100    0.0100    0.0100    0.0100    0.0100
0.0100    0.0100    0.0100    0.0100    0.0100    0.0100    0.0100    0.0100
0.0100    0.0100    0.0100    0.0100    0.0100    0.0100    0.0100    0.0100
0.0100    0.0100    0.0100    0.0100    0.0100    0.0100    0.0100    0.0100
</PP_RAB>
</PP_MESH>
<PP_LOCAL type="real"  size="600" columns="4">
-4.7049783137E+01   -4.7049987501E+01   -4.7050596339E+01   -4.7051597180E+01
-4.7052969606E+01   -4.7054685564E+01   -4.7056709680E+01   -4.7058999560E+01
-4.7061506091E+01   -4.7064173727E+01   -4.7066940789E+01   -4.7069739741E+01
-4.7072497478E+01   -4.7075135605E+01   -4.7077570713E+01   -4.7079714653E+01
-4.7081474817E+01   -4.7082754404E+01   -4.7083452701E+01   -4.7083465353E+01
-4.7082684637E+01   -4.7080999740E+01   -4.7078297037E+01   -4.7074460365E+01
-4.7069371308E+01   -4.7062909475E+01   -4.7054952786E+01   -4.7045377757E+01
-4.7034059788E+01   -4.7020873451E+01   -4.7005692778E+01   -4.6988391557E+01
-4.6968843620E+01   -4.6946923137E+01   -4.6922504907E+01   -4.6895464652E+01
-4.6865679302E+01   -4.6833027291E+01   -4.6797388840E+01   -4.6758646237E+01
-4.6716684124E+01   -4.6671389770E+01   -4.6622653342E+01   -4.6570368171E+01
-4.6514431012E+01   -4.6454742300E+01   -4.6391206392E+01   -4.6323731807E+01
-4.6252231457E+01   -4.6176622865E+01   -4.6096828379E+01   -4.6012775369E+01
-4.5924396420E+01   -4.5831629512E+01   -4.5734418185E+01   -4.5632711694E+01
-4.5526465157E+01   -4.5415639679E+01   -4.5300202472E+01   -4.5180126961E+01
-4.5055392869E+01   -4.4925986296E+01   -4.4791899780E+01   -4.4653132341E+01
-4.4509689520E+01   -4.4361583387E+01   -4.4208832551E+01   -4.4051462145E+01
-4.3889503796E+01   -4.3722995586E+01   -4.3551981992E+01   -4.3376513815E+01
-4.3196648093E+01   -4.3012448000E+01   -4.2823982732E+01   -4.2631327380E+01
-4.2434562785E+01   -4.2233775392E+01   -4.2029057079E+01   -4.1820504985E+01
-4.1608221322E+01   -4.1392313179E+01   -4.1172892322E+01   -4.0950074977E+01
-4.0723981611E+01   -4.0494736712E+01   -4.0262468551E+01   -4.0027308949E+01
-3.9789393042E+01   -3.9548859031E+01   -3.9305847942E+01   -3.9060503379E+01
-3.8812971275E+01   -3.8563399644E+01   -3.8311938336E+01   -3.8058738785E+01
-3.7803953763E+01   -3.7547737138E+01   -3.7290243625E+01   -3.7031628548E+01
-3.6772047594E+01   -3.6511656576E+01   -3.6250611198E+01   -3.5989066814E+01
-3.5727178200E+01   -3.5465099315E+01   -3.5202983073E+01   -3.4940981110E+01
-3.4679243557E+01   -3.4417918807E+01   -3.4157153283E+01   -3.3897091213E+01
-3.3637874393E+01   -3.3379641954E+01   -3.3122530131E+01   -3.2866672019E+01
-3.2612197335E+01   -3.2359232174E+01   -3.2107898763E+01   -3.1858315203E+01
-3.1610595216E+01   -3.1364847883E+01   -3.1121177375E+01   -3.0879682678E+01
-3.0640457320E+01   -3.0403589078E+01   -3.0169159688E+01   -2.9937244550E+01
-2.9707912419E+01   -2.9481225092E+01   -2.9257237092E+01   -2.9035995339E+01
-2.8817538817E+01   -2.8601898238E+01   -2.8389095688E+01   -2.8179144279E+01
-2.7972047781E+01   -2.7767800283E+01   -2.7566385708E+01   -2.7367777864E+01
-2.7171939241E+01   -2.6978820695E+01   -2.6788366320E+01   -2.6600517580E+01
-2.6415218238E+01   -2.6232415319E+01   -2.6052058657E+01   -2.5874101963E+01
-2.5698501850E+01   -2.5525211612E+01   -2.5354182298E+01   -2.5185368652E+01
-2.5018726853E+01   -2.4854213348E+01   -2.4691785336E+01   -2.4531401591E+01
-2.4373028783E+01   -2.4216642923E+01   -2.4062234397E+01   -2.3909799977E+01
-2.3759315511E+01   -2.3610742457E+01   -2.3464045931E+01   -2.3319192792E+01
-2.3176152826E+01   -2.3034897476E+01   -2.2895395920E+01   -2.2757617175E+01
-2.2621531456E+01   -2.2487109292E+01   -2.2354321304E+01   -2.2223138426E+01
-2.2093531928E+01   -2.1965473401E+01   -2.1838934774E+01   -2.1713888333E+01
-2.1590306734E+01   -2.1468163027E+01   -2.1347430667E+01   -2.1228083536E+01
-2.1110095957E+01   -2.0993442711E+01   -2.0878099053E+01   -2.0764040727E+01
-2.0651243977E+01   -2.0539685558E+01   -2.0429342748E+01   -2.0320193357E+01
-2.0212215730E+01   -2.0105388756E+01   -1.9999691867E+01   -1.9895105045E+01
-1.9791608817E+01   -1.9689184254E+01   -1.9587812970E+01   -1.9487477113E+01
-1.9388159361E+01   -1.9289842913E+01   -1.9192511478E+01   -1.9096149265E+01
-1.9000740971E+01   -1.8906271766E+01   -1.8812727279E+01   -1.8720093582E+01
-1.8628357175E+01   -1.8537504966E+01   -1.8447524256E+01   -1.8358402717E+01
-1.8270128377E+01   -1.8182689599E+01   -1.8096075059E+01   -1.8010273732E+01
-1.7925274868E+01   -1.7841067978E+01   -1.7757642810E+01   -1.7674989335E+01
-1.7593097727E+01   -1.7511958351E+01   -1.7431561739E+01   -1.7351898585E+01
-1.7272959724E+01   -1.7194736120E+01   -1.7117218860E+01   -1.7040399136E+01
-1.6964268242E+01   -1.6888817563E+01   -1.6814038569E+01   -1.6739922809E+01
-1.6666461909E+01   -1.6593647564E+01   -1.6521471542E+01   -1.6449925679E+01
-1.6379001880E+01   -1.6308692121E+01   -1.6238988447E+01   -1.6169882979E+01
-1.6101367914E+01   -1.6033435527E+01   -1.5966078179E+01   -1.5899288318E+01
-1.5833058482E+01   -1.5767381308E+01   -1.5702249530E+01   -1.5637655990E+01
-1.5573593635E+01   -1.5510055526E+01   -1.5447034841E+01   -1.5384524875E+01
-1.5322519046E+01   -1.5261010893E+01   -1.5199994085E+01   -1.5139462416E+01
-1.5079409806E+01   -1.5019830306E+01   -1.4960718094E+01   -1.4902067473E+01
-1.4843872874E+01   -1.4786128851E+01   -1.4728830078E+01   -1.4671971351E+01
-1.4615547578E+01   -1.4559553783E+01   -1.4503985094E+01   -1.4448836746E+01
-1.4394104074E+01   -1.4339782506E+01   -1.4285867563E+01   -1.4232354850E+01
-1.4179240054E+01   -1.4126518937E+01   -1.4074187334E+01   -1.4022241145E+01
-1.3970676334E+01   -1.3919488921E+01   -1.3868674980E+01   -1.3818230637E+01
-1.3768152062E+01   -1.3718435470E+01   -1.3669077116E+01   -1.3620073291E+01
-1.3571420323E+01   -1.3523114576E+01   -1.3475152441E+01   -1.3427530346E+01
-1.3380244745E+01   -1.3333292126E+01   -1.3286669003E+01   -1.3240371923E+01
-1.3194397462E+01   -1.3148742229E+01   -1.3103402863E+01   -1.3058376038E+01
-1.3013658460E+01   -1.2969246873E+01   -1.2925138055E+01   -1.2881328825E+01
-1.2837816038E+01   -1.2794596593E+01   -1.2751667428E+01   -1.2709025526E+01
-1.2666667911E+01   -1.2624591654E+01   -1.2582793871E+01   -1.2541271721E+01
-1.2500022413E+01   -1.2459043200E+01   -1.2418331382E+01   -1.2377884300E+01
-1.2337699344E+01   -1.2297773943E+01   -1.2258105576E+01   -1.2218691779E+01
-1.2179530120E+01   -1.2140618203E+01   -1.2101953665E+01   -1.2063534171E+01
-1.2025357410E+01   -1.1987421184E+01   -1.1949723120E+01   -1.1912260932E+01
-1.1875032418E+01   -1.1838035237E+01   -1.1801267849E+01   -1.1764728493E+01
-1.1728415476E+01   -1.1692327123E+01   -1.1656460890E+01   -1.1620814479E+01
-1.1585385474E+01   -1.1550171556E+01   -1.1515170935E+01   -1.1480381693E+01
-1.1445802022E+01   -1.1411430107E+01   -1.1377264018E+01   -1.1343301911E+01
-1.1309541957E+01   -1.1275982350E+01   -1.1242621321E+01   -1.1209457113E+01
-1.1176487987E+01   -1.1143712227E+01   -1.1111128136E+01   -1.1078734040E+01
-1.1046528281E+01   -1.1014509221E+01   -1.0982675242E+01   -1.0951024745E+01
-1.0919556146E+01   -1.0888267883E+01   -1.0857158410E+01   -1.0826226200E+01
-1.0795469740E+01   -1.0764887538E+01   -1.0734478118E+01   -1.0704240018E+01
-1.0674171795E+01   -1.0644272023E+01   -1.0614539289E+01   -1.0584972197E+01
-1.0555569367E+01   -1.0526329435E+01   -1.0497251050E+01   -1.0468332877E+01
-1.0439573596E+01   -1.0410971901E+01   -1.0382526500E+01   -1.0354236116E+01
-1.0326099484E+01   -1.0298115356E+01   -1.0270282494E+01   -1.0242599675E+01
-1.0215065690E+01   -1.0187679341E+01   -1.0160439444E+01   -1.0133344828E+01
-1.0106394333E+01   -1.0079586812E+01   -1.0052921131E+01   -1.0026396168E+01
-1.0000010810E+01   -9.9737639593E+00   -9.9476545278E+00   -9.9216814390E+00
-9.8958436278E+00   -9.8701400401E+00   -9.8445696327E+00   -9.8191313733E+00
-9.7938242399E+00   -9.7686472215E+00   -9.7435993171E+00   -9.7186795361E+00
-9.6938868979E+00   -9.6692204319E+00   -9.6446791776E+00   -9.6202621838E+00
-9.5959685092E+00   -9.5717972220E+00   -9.5477473996E+00   -9.5238181287E+00
-9.5000085052E+00   -9.4763176340E+00   -9.4527446289E+00   -9.4292886124E+00
-9.4059487157E+00   -9.3827240788E+00   -9.3596138500E+00   -9.3366171859E+00
-9.3137332516E+00   -9.2909612200E+00   -9.2683002725E+00   -9.2457495981E+00
-9.2233083940E+00   -9.2009758648E+00   -9.1787512232E+00   -9.1566336892E+00
-9.1346224903E+00   -9.1127168615E+00   -9.0909160452E+00   -9.0692192910E+00
-9.0476258554E+00   -9.0261350022E+00   -9.0047460022E+00   -8.9834581330E+00
-8.9622706791E+00   -8.9411829315E+00   -8.9201941882E+00   -8.8993037536E+00
-8.8785109385E+00   -8.8578150603E+00   -8.8372154427E+00   -8.8167114157E+00
-8.7963023153E+00   -8.7759874839E+00   -8.7557662700E+00   -8.7356380277E+00
-8.7156021174E+00   -8.6956579053E+00   -8.6758047631E+00   -8.6560420687E+00
-8.6363692053E+00   -8.6167855617E+00   -8.5972905325E+00   -8.5778835174E+00
-8.5585639219E+00   -8.5393311565E+00   -8.5201846371E+00   -8.5011237850E+00
-8.4821480264E+00   -8.4632567929E+00   -8.4444495208E+00   -8.4257256517E+00
-8.4070846320E+00   -8.3885259130E+00   -8.3700489509E+00   -8.3516532066E+00
-8.3333381458E+00   -8.3151032388E+00   -8.2969479605E+00   -8.2788717906E+00
-8.2608742131E+00   -8.2429547165E+00   -8.2251127938E+00   -8.2073479424E+00
-8.1896596639E+00   -8.1720474644E+00   -8.1545108540E+00   -8.1370493471E+00
-8.1196624623E+00   -8.1023497223E+00   -8.0851106538E+00   -8.0679447875E+00
-8.0508516582E+00   -8.0338308046E+00   -8.0168817691E+00   -8.0000040982E+00
-7.9831973421E+00   -7.9664610548E+00   -7.9497947940E+00   -7.9331981212E+00
-7.9166706014E+00   -7.9002118032E+00   -7.8838212990E+00   -7.8674986645E+00
-7.8512434792E+00   -7.8350553256E+00   -7.8189337902E+00   -7.8028784625E+00
-7.7868889354E+00   -7.7709648053E+00   -7.7551056718E+00   -7.7393111378E+00
-7.7235808094E+00   -7.7079142957E+00   -7.6923112094E+00   -7.6767711660E+00
-7.6612937842E+00   -7.6458786857E+00   -7.6305254953E+00   -7.6152338409E+00
-7.6000033532E+00   -7.5848336659E+00   -7.5697244157E+00   -7.5546752422E+00
-7.5396857877E+00   -7.5247556975E+00   -7.5098846196E+00   -7.4950722047E+00
-7.4803181066E+00   -7.4656219814E+00   -7.4509834881E+00   -7.4364022884E+00
-7.4218780466E+00   -7.4074104296E+00   -7.3929991069E+00   -7.3786437505E+00
-7.3643440352E+00   -7.3500996379E+00   -7.3359102383E+00   -7.3217755186E+00
-7.3076951632E+00   -7.2936688592E+00   -7.2796962958E+00   -7.2657771648E+00
-7.2519111604E+00   -7.2380979788E+00   -7.2243373189E+00   -7.2106288817E+00
-7.1969723704E+00   -7.1833674905E+00   -7.1698139499E+00   -7.1563114584E+00
-7.1428597282E+00   -7.1294584736E+00   -7.1161074110E+00   -7.1028062589E+00
-7.0895547380E+00   -7.0763525711E+00   -7.0631994829E+00   -7.0500952002E+00
-7.0370394519E+00   -7.0240319689E+00   -7.0110724840E+00   -6.9981607321E+00
-6.9852964499E+00   -6.9724793761E+00   -6.9597092513E+00   -6.9469858180E+00
-6.9343088206E+00   -6.9216780054E+00   -6.9090931205E+00   -6.8965539157E+00
-6.8840601429E+00   -6.8716115556E+00   -6.8592079090E+00   -6.8468489603E+00
-6.8345344682E+00   -6.8222641934E+00   -6.8100378981E+00   -6.7978553463E+00
-6.7857163036E+00   -6.7736205374E+00   -6.7615678166E+00   -6.7495579120E+00
-6.7375905957E+00   -6.7256656415E+00   -6.7137828251E+00   -6.7019419234E+00
-6.6901427150E+00   -6.6783849802E+00   -6.6666685006E+00   -6.6549930595E+00
-6.6433584416E+00   -6.6317644332E+00   -6.6202108221E+00   -6.6086973976E+00
-6.5972239502E+00   -6.5857902722E+00   -6.5743961571E+00   -6.5630413999E+00
-6.5517257971E+00   -6.5404491465E+00   -6.5292112473E+00   -6.5180119001E+00
-6.5068509069E+00   -6.4957280709E+00   -6.4846431969E+00   -6.4735960908E+00
-6.4625865600E+00   -6.4516144130E+00   -6.4406794597E+00   -6.4297815115E+00
-6.4189203806E+00   -6.4080958808E+00   -6.3973078273E+00   -6.3865560360E+00
-6.3758403246E+00   -6.3651605118E+00   -6.3545164174E+00   -6.3439078626E+00
</PP_LOCAL>
<PP_NONLOCAL>
<PP_BETA.1
type="real"
size="600"
columns="4"
index="1"
angular_momentum="0"
cutoff_radius_index=" 164"
cutoff_radius="    1.6300000000E+00" >
-5.1814452728E-10    8.0794012254E-02    1.6136784290E-01    2.4150234896E-01
3.2098045737E-01    3.9958818011E-01    4.7711560400E-01    5.5335784673E-01
6.2811597081E-01    7.0119784816E-01    7.7241896840E-01    8.4160318486E-01
9.0858339298E-01    9.7320213685E-01    1.0353121402E+00    1.0947767596E+00
1.1514703576E+00    1.2052785958E+00    1.2560986477E+00    1.3038393321E+00
1.3484211697E+00    1.3897763646E+00    1.4278487154E+00    1.4625934591E+00
1.4939770525E+00    1.5219768977E+00    1.5465810156E+00    1.5677876751E+00
1.5856049830E+00    1.6000504424E+00    1.6111504854E+00    1.6189399868E+00
1.6234617658E+00    1.6247660809E+00    1.6229101256E+00    1.6179575287E+00
1.6099778659E+00    1.5990461872E+00    1.5852425631E+00    1.5686516547E+00
1.5493623099E+00    1.5274671881E+00    1.5030624148E+00    1.4762472677E+00
1.4471238935E+00    1.4157970565E+00    1.3823739163E+00    1.3469638343E+00
1.3096782060E+00    1.2706303167E+00    1.2299352176E+00    1.1877096183E+00
1.1440717923E+00    1.0991414908E+00    1.0530398614E+00    1.0058893667E+00
9.5781369827E-01    9.0893768207E-01    8.5938717157E-01    8.0928892377E-01
7.5877045510E-01    7.0795987403E-01    6.5698568734E-01    6.0597657802E-01
5.5506115304E-01    5.0436765976E-01    4.5402367064E-01    4.0415573637E-01
3.5488900809E-01    3.0634683046E-01    2.5865030738E-01    2.1191784347E-01
1.6626466446E-01    1.2180232057E-01    7.8638177336E-02    3.6874898869E-02
-3.3900710512E-03   -4.2065024388E-02   -7.9064494737E-02   -1.1430974755E-01
-1.4772924845E-01   -1.7925910336E-01   -2.0884346430E-01   -2.3643489493E-01
-2.6199469000E-01   -2.8549314352E-01   -3.0690976067E-01   -3.2623340914E-01
-3.4346240616E-01   -3.5860453809E-01   -3.7167701041E-01   -3.8270632634E-01
-3.9172809364E-01   -3.9878675951E-01   -4.0393527486E-01   -4.0723468967E-01
-4.0875368240E-01   -4.0856802704E-01   -4.0676000228E-01   -4.0341774824E-01
-3.9863457653E-01   -3.9250824061E-01   -3.8514017349E-01   -3.7663470074E-01
-3.6709823686E-01   -3.5663847360E-01   -3.4536356890E-01   -3.3338134517E-01
-3.2079850577E-01   -3.0771987814E-01   -2.9424769196E-01   -2.8048090033E-01
-2.6651455125E-01   -2.5243921638E-01   -2.3834048298E-01   -2.2429851457E-01
-2.1038768455E-01   -1.9667628631E-01   -1.8322632208E-01   -1.7009337230E-01
-1.5732654536E-01   -1.4496850692E-01   -1.3305558712E-01   -1.2161796236E-01
-1.1067990746E-01   -1.0026011317E-01   -9.0372062875E-02   -8.1024461286E-02
-7.2221707284E-02   -6.3964402553E-02   -5.6249886436E-02   -4.9072787660E-02
-4.2425582743E-02   -3.6299150824E-02   -3.0683314688E-02   -2.5567357424E-02
-2.0940503778E-02   -1.6792364453E-02   -1.3113298404E-02   -9.8948234021E-03
-7.1297038206E-03   -4.8132816672E-03   -2.9394269098E-03   -1.5018643986E-03
-5.3452018079E-04   -3.8317555368E-05    9.1068271765E-05    2.9057268521E-05
-1.8572344251E-05   -3.3453614429E-06    3.7851067184E-06   -4.0064596956E-08
-1.9805039924E-07    0.0000000000E+00    0.0000000000E+00    0.0000000000E+00
0.0000000000E+00    0.0000000000E+00    0.0000000000E+00    0.0000000000E+00
0.0000000000E+00    0.0000000000E+00    0.0000000000E+00    0.0000000000E+00
0. 0. 0. 0.
0. 0. 0. 0.
0. 0. 0. 0.
0. 0. 0. 0.
0. 0. 0. 0.
0. 0. 0. 0.
0. 0. 0. 0.
0. 0. 0. 0.
0. 0. 0. 0.
0. 0. 0. 0.
0. 0. 0. 0.
0. 0. 0. 0.
0. 0. 0. 0.
0. 0. 0. 0.
0. 0. 0. 0.
0. 0. 0. 0.
0. 0. 0. 0.
0. 0. 0. 0.
0. 0. 0. 0.
0. 0. 0. 0.
0. 0. 0. 0.
0. 0. 0. 0.
0. 0. 0. 0.
0. 0. 0. 0.
0. 0. 0. 0.
0. 0. 0. 0.
0. 0. 0. 0.
0. 0. 0. 0.
0. 0. 0. 0.
0. 0. 0. 0.
0. 0. 0. 0.
0. 0. 0. 0.
0. 0. 0. 0.
0. 0. 0. 0.
0. 0. 0. 0.
0. 0. 0. 0.
0. 0. 0. 0.
0. 0. 0. 0.
0. 0. 0. 0.
0. 0. 0. 0.
0. 0. 0. 0.
0. 0. 0. 0.
0. 0. 0. 0.
0. 0. 0. 0.
0. 0. 0. 0.
0. 0. 0. 0.
0. 0. 0. 0.
0. 0. 0. 0.
0. 0. 0. 0.
0. 0. 0. 0.
0. 0. 0. 0.
0. 0. 0. 0.
0. 0. 0. 0.
0. 0. 0. 0.
0. 0. 0. 0.
0. 0. 0. 0.
0. 0. 0. 0.
0. 0. 0. 0.
0. 0. 0. 0.
0. 0. 0. 0.
0. 0. 0. 0.
0. 0. 0. 0.
0. 0. 0. 0.
0. 0. 0. 0.
0. 0. 0. 0.
0. 0. 0. 0.
0. 0. 0. 0.
0. 0. 0. 0.
0. 0. 0. 0.