<UPF version="2.0.1">
<PP_INFO>
NOTE!!!!
This file is trimmed with a mesh size of 600 from the original version.
Trimming performed at 2023-03-31 09:10:05.001664 by trim_upf.py version 0.1.0

This pseudopotential file has been produced using the code
ONCVPSP  (Optimized Norm-Conservinng Vanderbilt PSeudopotential)
scalar-relativistic version 3.3.0 08/16/2017 by D. R. Hamann
The code is available through a link at URL www.mat-simresearch.com.
Documentation with the package provides a full discription of the
input data below.
While it is not required under the terms of the GNU GPL, it is
suggested that you cite D. R. Hamann, Phys. Rev. B 88, 085117 (2013)
in any publication using these pseudopotentials.
<PP_INPUTFILE>
# ATOM AND REFERENCE CONFIGURATION
# atsym  z   nc   nv     iexc    psfile
B  5.00    1    2       4      upf
#
#   n    l    f        energy (Ha)
1    0    2.00
2    0    2.00
2    1    1.00
#
# PSEUDOPOTENTIAL AND OPTIMIZATION
# lmax
1
#
#   l,   rc,      ep,       ncon, nbas, qcut
0   1.20000  -0.34703    4    8   7.60000
1   1.20000  -0.13255    4    8   8.80000
#
# LOCAL POTENTIAL
# lloc, lpopt,  rc(5),   dvloc0
4    5   1.20000      0.00000
#
# VANDERBILT-KLEINMAN-BYLANDER PROJECTORs
# l, nproj, debl
0    2   8.50000
1    2   1.50000
#
# MODEL CORE CHARGE
# icmod, fcfact, rcfact
3   2.90000   1.45000
#
# LOG DERIVATIVE ANALYSIS
# epsh1, epsh2, depsh
-12.00   12.00    0.02
#
# OUTPUT GRID
# rlmax, drl
6.00    0.01
#
# TEST CONFIGURATIONS
# ncnf
0
# nvcnf
#   n    l    f
</PP_INPUTFILE>
</PP_INFO>
<!--                               -->
<!-- END OF HUMAN READABLE SECTION -->
<!--                               -->
<PP_HEADER
generated="Generated using ONCVPSP code by D. R. Hamann"
author="anonymous"
date="171031"
comment=""
element="B "
pseudo_type="NC"
relativistic="scalar"
is_ultrasoft="F"
is_paw="F"
is_coulomb="F"
has_so="F"
has_wfc="F"
has_gipaw="F"
core_correction="T"
functional="PBE"
z_valence="    3.00"
total_psenergy="  -5.19873958431E+00"
rho_cutoff="   1.53300000000E+01"
l_max="1"
l_local="-1"
mesh_size="   600"
number_of_wfc="2"
number_of_proj="4"/>
<PP_MESH>
<PP_R type="real"  size="600" columns="8">
0.0000    0.0100    0.0200    0.0300    0.0400    0.0500    0.0600    0.0700
0.0800    0.0900    0.1000    0.1100    0.1200    0.1300    0.1400    0.1500
0.1600    0.1700    0.1800    0.1900    0.2000    0.2100    0.2200    0.2300
0.2400    0.2500    0.2600    0.2700    0.2800    0.2900    0.3000    0.3100
0.3200    0.3300    0.3400    0.3500    0.3600    0.3700    0.3800    0.3900
0.4000    0.4100    0.4200    0.4300    0.4400    0.4500    0.4600    0.4700
0.4800    0.4900    0.5000    0.5100    0.5200    0.5300    0.5400    0.5500
0.5600    0.5700    0.5800    0.5900    0.6000    0.6100    0.6200    0.6300
0.6400    0.6500    0.6600    0.6700    0.6800    0.6900    0.7000    0.7100
0.7200    0.7300    0.7400    0.7500    0.7600    0.7700    0.7800    0.7900
0.8000    0.8100    0.8200    0.8300    0.8400    0.8500    0.8600    0.8700
0.8800    0.8900    0.9000    0.9100    0.9200    0.9300    0.9400    0.9500
0.9600    0.9700    0.9800    0.9900    1.0000    1.0100    1.0200    1.0300
1.0400    1.0500    1.0600    1.0700    1.0800    1.0900    1.1000    1.1100
1.1200    1.1300    1.1400    1.1500    1.1600    1.1700    1.1800    1.1900
1.2000    1.2100    1.2200    1.2300    1.2400    1.2500    1.2600    1.2700
1.2800    1.2900    1.3000    1.3100    1.3200    1.3300    1.3400    1.3500
1.3600    1.3700    1.3800    1.3900    1.4000    1.4100    1.4200    1.4300
1.4400    1.4500    1.4600    1.4700    1.4800    1.4900    1.5000    1.5100
1.5200    1.5300    1.5400    1.5500    1.5600    1.5700    1.5800    1.5900
1.6000    1.6100    1.6200    1.6300    1.6400    1.6500    1.6600    1.6700
1.6800    1.6900    1.7000    1.7100    1.7200    1.7300    1.7400    1.7500
1.7600    1.7700    1.7800    1.7900    1.8000    1.8100    1.8200    1.8300
1.8400    1.8500    1.8600    1.8700    1.8800    1.8900    1.9000    1.9100
1.9200    1.9300    1.9400    1.9500    1.9600    1.9700    1.9800    1.9900
2.0000    2.0100    2.0200    2.0300    2.0400    2.0500    2.0600    2.0700
2.0800    2.0900    2.1000    2.1100    2.1200    2.1300    2.1400    2.1500
2.1600    2.1700    2.1800    2.1900    2.2000    2.2100    2.2200    2.2300
2.2400    2.2500    2.2600    2.2700    2.2800    2.2900    2.3000    2.3100
2.3200    2.3300    2.3400    2.3500    2.3600    2.3700    2.3800    2.3900
2.4000    2.4100    2.4200    2.4300    2.4400    2.4500    2.4600    2.4700
2.4800    2.4900    2.5000    2.5100    2.5200    2.5300    2.5400    2.5500
2.5600    2.5700    2.5800    2.5900    2.6000    2.6100    2.6200    2.6300
2.6400    2.6500    2.6600    2.6700    2.6800    2.6900    2.7000    2.7100
2.7200    2.7300    2.7400    2.7500    2.7600    2.7700    2.7800    2.7900
2.8000    2.8100    2.8200    2.8300    2.8400    2.8500    2.8600    2.8700
2.8800    2.8900    2.9000    2.9100    2.9200    2.9300    2.9400    2.9500
2.9600    2.9700    2.9800    2.9900    3.0000    3.0100    3.0200    3.0300
3.0400    3.0500    3.0600    3.0700    3.0800    3.0900    3.1000    3.1100
3.1200    3.1300    3.1400    3.1500    3.1600    3.1700    3.1800    3.1900
3.2000    3.2100    3.2200    3.2300    3.2400    3.2500    3.2600    3.2700
3.2800    3.2900    3.3000    3.3100    3.3200    3.3300    3.3400    3.3500
3.3600    3.3700    3.3800    3.3900    3.4000    3.4100    3.4200    3.4300
3.4400    3.4500    3.4600    3.4700    3.4800    3.4900    3.5000    3.5100
3.5200    3.5300    3.5400    3.5500    3.5600    3.5700    3.5800    3.5900
3.6000    3.6100    3.6200    3.6300    3.6400    3.6500    3.6600    3.6700
3.6800    3.6900    3.7000    3.7100    3.7200    3.7300    3.7400    3.7500
3.7600    3.7700    3.7800    3.7900    3.8000    3.8100    3.8200    3.8300
3.8400    3.8500    3.8600    3.8700    3.8800    3.8900    3.9000    3.9100
3.9200    3.9300    3.9400    3.9500    3.9600    3.9700    3.9800    3.9900
4.0000    4.0100    4.0200    4.0300    4.0400    4.0500    4.0600    4.0700
4.0800    4.0900    4.1000    4.1100    4.1200    4.1300    4.1400    4.1500
4.1600    4.1700    4.1800    4.1900    4.2000    4.2100    4.2200    4.2300
4.2400    4.2500    4.2600    4.2700    4.2800    4.2900    4.3000    4.3100
4.3200    4.3300    4.3400    4.3500    4.3600    4.3700    4.3800    4.3900
4.4000    4.4100    4.4200    4.4300    4.4400    4.4500    4.4600    4.4700
4.4800    4.4900    4.5000    4.5100    4.5200    4.5300    4.5400    4.5500
4.5600    4.5700    4.5800    4.5900    4.6000    4.6100    4.6200    4.6300
4.6400    4.6500    4.6600    4.6700    4.6800    4.6900    4.7000    4.7100
4.7200    4.7300    4.7400    4.7500    4.7600    4.7700    4.7800    4.7900
4.8000    4.8100    4.8200    4.8300    4.8400    4.8500    4.8600    4.8700
4.8800    4.8900    4.9000    4.9100    4.9200    4.9300    4.9400    4.9500
4.9600    4.9700    4.9800    4.9900    5.0000    5.0100    5.0200    5.0300
5.0400    5.0500    5.0600    5.0700    5.0800    5.0900    5.1000    5.1100
5.1200    5.1300    5.1400    5.1500    5.1600    5.1700    5.1800    5.1900
5.2000    5.2100    5.2200    5.2300    5.2400    5.2500    5.2600    5.2700
5.2800    5.2900    5.3000    5.3100    5.3200    5.3300    5.3400    5.3500
5.3600    5.3700    5.3800    5.3900    5.4000    5.4100    5.4200    5.4300
5.4400    5.4500    5.4600    5.4700    5.4800    5.4900    5.5000    5.5100
5.5200    5.5300    5.5400    5.5500    5.5600    5.5700    5.5800    5.5900
5.6000    5.6100    5.6200    5.6300    5.6400    5.6500    5.6600    5.6700
5.6800    5.6900    5.7000    5.7100    5.7200    5.7300    5.7400    5.7500
5.7600    5.7700    5.7800    5.7900    5.8000    5.8100    5.8200    5.8300
5.8400    5.8500    5.8600    5.8700    5.8800    5.8900    5.9000    5.9100
5.9200    5.9300    5.9400    5.9500    5.9600    5.9700    5.9800    5.9900
</PP_R>
<PP_RAB type="real"  size="600" columns="8">
0.0100    0.0100    0.0100    0.0100    0.0100    0.0100    0.0100    0.0100
0.0100    0.0100    0.0100    0.0100    0.0100    0.0100    0.0100    0.0100
0.0100    0.0100    0.0100    0.0100    0.0100    0.0100    0.0100    0.0100
0.0100    0.0100    0.0100    0.0100    0.0100    0.0100    0.0100    0.0100
0.0100    0.0100    0.0100    0.0100    0.0100    0.0100    0.0100    0.0100
0.0100    0.0100    0.0100    0.0100    0.0100    0.0100    0.0100    0.0100
0.0100    0.0100    0.0100    0.0100    0.0100    0.0100    0.0100    0.0100
0.0100    0.0100    0.0100    0.0100    0.0100    0.0100    0.0100    0.0100
0.0100    0.0100    0.0100    0.0100    0.0100    0.0100    0.0100    0.0100
0.0100    0.0100    0.0100    0.0100    0.0100    0.0100    0.0100    0.0100
0.0100    0.0100    0.0100    0.0100    0.0100    0.0100    0.0100    0.0100
0.0100    0.0100    0.0100    0.0100    0.0100    0.0100    0.0100    0.0100
0.0100    0.0100    0.0100    0.0100    0.0100    0.0100    0.0100    0.0100
0.0100    0.0100    0.0100    0.0100    0.0100    0.0100    0.0100    0.0100
0.0100    0.0100    0.0100    0.0100    0.0100    0.0100    0.0100    0.0100
0.0100    0.0100    0.0100    0.0100    0.0100    0.0100    0.0100    0.0100
0.0100    0.0100    0.0100    0.0100    0.0100    0.0100    0.0100    0.0100
0.0100    0.0100    0.0100    0.0100    0.0100    0.0100    0.0100    0.0100
0.0100    0.0100    0.0100    0.0100    0.0100    0.0100    0.0100    0.0100
0.0100    0.0100    0.0100    0.0100    0.0100    0.0100    0.0100    0.0100
0.0100    0.0100    0.0100    0.0100    0.0100    0.0100    0.0100    0.0100
0.0100    0.0100    0.0100    0.0100    0.0100    0.0100    0.0100    0.0100
0.0100    0.0100    0.0100    0.0100    0.0100    0.0100    0.0100    0.0100
0.0100    0.0100    0.0100    0.0100    0.0100    0.0100    0.0100    0.0100
0.0100    0.0100    0.0100    0.0100    0.0100    0.0100    0.0100    0.0100
0.0100    0.0100    0.0100    0.0100    0.0100    0.0100    0.0100    0.0100
0.0100    0.0100    0.0100    0.0100    0.0100    0.0100    0.0100    0.0100
0.0100    0.0100    0.0100    0.0100    0.0100    0.0100    0.0100    0.0100
0.0100    0.0100    0.0100    0.0100    0.0100    0.0100    0.0100    0.0100
0.0100    0.0100    0.0100    0.0100    0.0100    0.0100    0.0100    0.0100
0.0100    0.0100    0.0100    0.0100    0.0100    0.0100    0.0100    0.0100
0.0100    0.0100    0.0100    0.0100    0.0100    0.0100    0.0100    0.0100
0.0100    0.0100    0.0100    0.0100    0.0100    0.0100    0.0100    0.0100
0.0100    0.0100    0.0100    0.0100    0.0100    0.0100    0.0100    0.0100
0.0100    0.0100    0.0100    0.0100    0.0100    0.0100    0.0100    0.0100
0.0100    0.0100    0.0100    0.0100    0.0100    0.0100    0.0100    0.0100
0.0100    0.0100    0.0100    0.0100    0.0100    0.0100    0.0100    0.0100
0.0100    0.0100    0.0100    0.0100    0.0100    0.0100    0.0100    0.0100
0.0100    0.0100    0.0100    0.0100    0.0100    0.0100    0.0100    0.0100
0.0100    0.0100    0.0100    0.0100    0.0100    0.0100    0.0100    0.0100
0.0100    0.0100    0.0100    0.0100    0.0100    0.0100    0.0100    0.0100
0.0100    0.0100    0.0100    0.0100    0.0100    0.0100    0.0100    0.0100
0.0100    0.0100    0.0100    0.0100    0.0100    0.0100    0.0100    0.0100
0.0100    0.0100    0.0100    0.0100    0.0100    0.0100    0.0100    0.0100
0.0100    0.0100    0.0100    0.0100    0.0100    0.0100    0.0100    0.0100
0.0100    0.0100    0.0100    0.0100    0.0100    0.0100    0.0100    0.0100
0.0100    0.0100    0.0100    0.0100    0.0100    0.0100    0.0100    0.0100
0.0100    0.0100    0.0100    0.0100    0.0100    0.0100    0.0100    0.0100
0.0100    0.0100    0.0100    0.0100    0.0100    0.0100    0.0100    0.0100
0.0100    0.0100    0.0100    0.0100    0.0100    0.0100    0.0100    0.0100
0.0100    0.0100    0.0100    0.0100    0.0100    0.0100    0.0100    0.0100
0.0100    0.0100    0.0100    0.0100    0.0100    0.0100    0.0100    0.0100
0.0100    0.0100    0.0100    0.0100    0.0100    0.0100    0.0100    0.0100
0.0100    0.0100    0.0100    0.0100    0.0100    0.0100    0.0100    0.0100
0.0100    0.0100    0.0100    0.0100    0.0100    0.0100    0.0100    0.0100
0.0100    0.0100    0.0100    0.0100    0.0100    0.0100    0.0100    0.0100
0.0100    0.0100    0.0100    0.0100    0.0100    0.0100    0.0100    0.0100
0.0100    0.0100    0.0100    0.0100    0.0100    0.0100    0.0100    0.0100
0.0100    0.0100    0.0100    0.0100    0.0100    0.0100    0.0100    0.0100
0.0100    0.0100    0.0100    0.0100    0.0100    0.0100    0.0100    0.0100
0.0100    0.0100    0.0100    0.0100    0.0100    0.0100    0.0100    0.0100
0.0100    0.0100    0.0100    0.0100    0.0100    0.0100    0.0100    0.0100
0.0100    0.0100    0.0100    0.0100    0.0100    0.0100    0.0100    0.0100
0.0100    0.0100    0.0100    0.0100    0.0100    0.0100    0.0100    0.0100
0.0100    0.0100    0.0100    0.0100    0.0100    0.0100    0.0100    0.0100
0.0100    0.0100    0.0100    0.0100    0.0100    0.0100    0.0100    0.0100
0.0100    0.0100    0.0100    0.0100    0.0100    0.0100    0.0100    0.0100
0.0100    0.0100    0.0100    0.0100    0.0100    0.0100    0.0100    0.0100
0.0100    0.0100    0.0100    0.0100    0.0100    0.0100    0.0100    0.0100
0.0100    0.0100    0.0100    0.0100    0.0100    0.0100    0.0100    0.0100
0.0100    0.0100    0.0100    0.0100    0.0100    0.0100    0.0100    0.0100
0.0100    0.0100    0.0100    0.0100    0.0100    0.0100    0.0100    0.0100
0.0100    0.0100    0.0100    0.0100    0.0100    0.0100    0.0100    0.0100
0.0100    0.0100    0.0100    0.0100    0.0100    0.0100    0.0100    0.0100
0.0100    0.0100    0.0100    0.0100    0.0100    0.0100    0.0100    0.0100
</PP_RAB>
</PP_MESH>
<PP_LOCAL type="real"  size="600" columns="4">
-1.0301643036E+01   -1.0300958417E+01   -1.0298904791E+01   -1.0295482860E+01
-1.0290693799E+01   -1.0284539259E+01   -1.0277021375E+01   -1.0268142784E+01
-1.0257906639E+01   -1.0246316642E+01   -1.0233377078E+01   -1.0219092864E+01
-1.0203469608E+01   -1.0186513685E+01   -1.0168232319E+01   -1.0148633687E+01
-1.0127727024E+01   -1.0105522746E+01   -1.0082032579E+01   -1.0057269681E+01
-1.0031248775E+01   -1.0003986269E+01   -9.9755003566E+00   -9.9458111070E+00
-9.9149405234E+00   -9.8829125691E+00   -9.8497531562E+00   -9.8154900917E+00
-9.7801529771E+00   -9.7437730617E+00   -9.7063830499E+00   -9.6680168641E+00
-9.6287093698E+00   -9.5884960683E+00   -9.5474127670E+00   -9.5054952355E+00
-9.4627788604E+00   -9.4192983079E+00   -9.3750872068E+00   -9.3301778615E+00
-9.2846010036E+00   -9.2383855907E+00   -9.1915586568E+00   -9.1441452176E+00
-9.0961682333E+00   -9.0476486268E+00   -8.9986053541E+00   -8.9490555241E+00
-8.8990145604E+00   -8.8484963984E+00   -8.7975137102E+00   -8.7460781492E+00
-8.6942006055E+00   -8.6418914650E+00   -8.5891608634E+00   -8.5360189288E+00
-8.4824760064E+00   -8.4285428592E+00   -8.3742308413E+00   -8.3195520390E+00
-8.2645193775E+00   -8.2091466922E+00   -8.1534487631E+00   -8.0974413134E+00
-8.0411409727E+00   -7.9845652088E+00   -7.9277322293E+00   -7.8706608587E+00
-7.8133703939E+00   -7.7558804464E+00   -7.6982107739E+00   -7.6403811108E+00
-7.5824110027E+00   -7.5243196524E+00   -7.4661257847E+00   -7.4078475362E+00
-7.3495023772E+00   -7.2911070694E+00   -7.2326776654E+00   -7.1742295523E+00
-7.1157775395E+00   -7.0573359917E+00   -6.9989190027E+00   -6.9405406044E+00
-6.8822150052E+00   -6.8239568449E+00   -6.7657814570E+00   -6.7077051231E+00
-6.6497453061E+00   -6.5919208481E+00   -6.5342521195E+00   -6.4767611090E+00
-6.4194714453E+00   -6.3624083472E+00   -6.3055985012E+00   -6.2490698716E+00
-6.1928514521E+00   -6.1369729713E+00   -6.0814645676E+00   -6.0263564522E+00
-5.9716785765E+00   -5.9174603221E+00   -5.8637302261E+00   -5.8105157557E+00
-5.7578431351E+00   -5.7057372303E+00   -5.6542214877E+00   -5.6033179202E+00
-5.5530471301E+00   -5.5034283575E+00   -5.4544795366E+00   -5.4062173475E+00
-5.3586572464E+00   -5.3118134623E+00   -5.2656989467E+00   -5.2203252771E+00
-5.1757025693E+00   -5.1318388268E+00   -5.0887407559E+00   -5.0464129123E+00
-5.0048570895E+00   -4.9640469505E+00   -4.9239198324E+00   -4.8843865009E+00
-4.8454030528E+00   -4.8069673354E+00   -4.7690864508E+00   -4.7317470044E+00
-4.6949285411E+00   -4.6586254920E+00   -4.6228295896E+00   -4.5875311256E+00
-4.5527219784E+00   -4.5183942851E+00   -4.4845404681E+00   -4.4511532793E+00
-4.4182257371E+00   -4.3857510915E+00   -4.3537227904E+00   -4.3221344471E+00
-4.2909798120E+00   -4.2602527458E+00   -4.2299471963E+00   -4.2000571773E+00
-4.1705767508E+00   -4.1415000112E+00   -4.1128210726E+00   -4.0845340582E+00
-4.0566330917E+00   -4.0291122914E+00   -4.0019657660E+00   -3.9751876116E+00
-3.9487719117E+00   -3.9227127372E+00   -3.8970041486E+00   -3.8716401992E+00
-3.8466149394E+00   -3.8219224210E+00   -3.7975567038E+00   -3.7735118610E+00
-3.7497819866E+00   -3.7263612020E+00   -3.7032436632E+00   -3.6804235681E+00
-3.6578951643E+00   -3.6356527554E+00   -3.6136907088E+00   -3.5920034624E+00
-3.5705855308E+00   -3.5494315115E+00   -3.5285360911E+00   -3.5078940502E+00
-3.4875002684E+00   -3.4673497288E+00   -3.4474375218E+00   -3.4277588483E+00
-3.4083090228E+00   -3.3890834758E+00   -3.3700777552E+00   -3.3512875280E+00
-3.3327085808E+00   -3.3143368204E+00   -3.2961682735E+00   -3.2781990860E+00
-3.2604255223E+00   -3.2428439635E+00   -3.2254509059E+00   -3.2082429588E+00
-3.1912168421E+00   -3.1743693834E+00   -3.1576975153E+00   -3.1411982720E+00
-3.1248687858E+00   -3.1087062838E+00   -3.0927080840E+00   -3.0768715916E+00
-3.0611942952E+00   -3.0456737623E+00   -3.0303076362E+00   -3.0150936313E+00
-3.0000295296E+00   -2.9851131766E+00   -2.9703424774E+00   -2.9557153933E+00
-2.9412299378E+00   -2.9268841733E+00   -2.9126762078E+00   -2.8986041915E+00
-2.8846663139E+00   -2.8708608008E+00   -2.8571859118E+00   -2.8436399379E+00
-2.8302211986E+00   -2.8169280407E+00   -2.8037588356E+00   -2.7907119780E+00
-2.7777858845E+00   -2.7649789918E+00   -2.7522897563E+00   -2.7397166522E+00
-2.7272581715E+00   -2.7149128233E+00   -2.7026791328E+00   -2.6905556415E+00
-2.6785409068E+00   -2.6666335019E+00   -2.6548320158E+00   -2.6431350536E+00
-2.6315412365E+00   -2.6200492020E+00   -2.6086576045E+00   -2.5973651152E+00
-2.5861704231E+00   -2.5750722347E+00   -2.5640692748E+00   -2.5531602869E+00
-2.5423440333E+00   -2.5316192959E+00   -2.5209848758E+00   -2.5104395945E+00
-2.4999822933E+00   -2.4896118338E+00   -2.4793270983E+00   -2.4691269895E+00
-2.4590104304E+00   -2.4489763647E+00   -2.4390237565E+00   -2.4291515900E+00
-2.4193588693E+00   -2.4096446182E+00   -2.4000078801E+00   -2.3904477169E+00
-2.3809632095E+00   -2.3715534566E+00   -2.3622175746E+00   -2.3529546970E+00
-2.3437639735E+00   -2.3346445702E+00   -2.3255956681E+00   -2.3166164633E+00
-2.3077061658E+00   -2.2988639993E+00   -2.2900892006E+00   -2.2813810188E+00
-2.2727387148E+00   -2.2641615612E+00   -2.2556488410E+00   -2.2471998479E+00
-2.2388138855E+00   -2.2304902669E+00   -2.2222283144E+00   -2.2140273589E+00
-2.2058867402E+00   -2.1978058060E+00   -2.1897839121E+00   -2.1818204221E+00
-2.1739147073E+00   -2.1660661464E+00   -2.1582741255E+00   -2.1505380380E+00
-2.1428572846E+00   -2.1352312729E+00   -2.1276594182E+00   -2.1201411424E+00
-2.1126758749E+00   -2.1052630522E+00   -2.0979021180E+00   -2.0905925233E+00
-2.0833337262E+00   -2.0761251922E+00   -2.0689663940E+00   -2.0618568118E+00
-2.0547959329E+00   -2.0477832520E+00   -2.0408182710E+00   -2.0339004992E+00
-2.0270294531E+00   -2.0202046561E+00   -2.0134256391E+00   -2.0066919398E+00
-2.0000031027E+00   -1.9933586792E+00   -1.9867582274E+00   -1.9802013119E+00
-1.9736875034E+00   -1.9672163800E+00   -1.9607875251E+00   -1.9544005290E+00
-1.9480549855E+00   -1.9417504933E+00   -1.9354866576E+00   -1.9292630901E+00
-1.9230794086E+00   -1.9169352380E+00   -1.9108302074E+00   -1.9047639484E+00
-1.8987361200E+00   -1.8927463733E+00   -1.8867943691E+00   -1.8808797496E+00
-1.8750021203E+00   -1.8691611050E+00   -1.8633563146E+00   -1.8575874106E+00
-1.8518540834E+00   -1.8461560205E+00   -1.8404929306E+00   -1.8348644902E+00
-1.8292703772E+00   -1.8237102759E+00   -1.8181838670E+00   -1.8126908486E+00
-1.8072309199E+00   -1.8018037831E+00   -1.7964091450E+00   -1.7910467138E+00
-1.7857162020E+00   -1.7804173252E+00   -1.7751498029E+00   -1.7699133575E+00
-1.7647077147E+00   -1.7595326037E+00   -1.7543877566E+00   -1.7492729086E+00
-1.7441877983E+00   -1.7391321669E+00   -1.7341057589E+00   -1.7291083217E+00
-1.7241396055E+00   -1.7191993634E+00   -1.7142873513E+00   -1.7094033281E+00
-1.7045470550E+00   -1.6997182964E+00   -1.6949168190E+00   -1.6901423923E+00
-1.6853947883E+00   -1.6806737816E+00   -1.6759791494E+00   -1.6713106712E+00
-1.6666681292E+00   -1.6620513077E+00   -1.6574599936E+00   -1.6528939762E+00
-1.6483530468E+00   -1.6438369994E+00   -1.6393456300E+00   -1.6348787368E+00
-1.6304361203E+00   -1.6260175832E+00   -1.6216229301E+00   -1.6172519681E+00
-1.6129045059E+00   -1.6085803547E+00   -1.6042793274E+00   -1.6000012390E+00
-1.5957459066E+00   -1.5915131489E+00   -1.5873027870E+00   -1.5831146434E+00
-1.5789485428E+00   -1.5748043116E+00   -1.5706817781E+00   -1.5665807723E+00
-1.5625011260E+00   -1.5584426728E+00   -1.5544052480E+00   -1.5503886885E+00
-1.5463928331E+00   -1.5424175220E+00   -1.5384625973E+00   -1.5345279025E+00
-1.5306132828E+00   -1.5267185849E+00   -1.5228436571E+00   -1.5189883494E+00
-1.5151525130E+00   -1.5113360009E+00   -1.5075386673E+00   -1.5037603681E+00
-1.5000009605E+00   -1.4962603032E+00   -1.4925382562E+00   -1.4888346810E+00
-1.4851494404E+00   -1.4814823987E+00   -1.4778334213E+00   -1.4742023751E+00
-1.4705891283E+00   -1.4669935502E+00   -1.4634155116E+00   -1.4598548845E+00
-1.4563115422E+00   -1.4527853589E+00   -1.4492762106E+00   -1.4457839738E+00
-1.4423085267E+00   -1.4388497485E+00   -1.4354075194E+00   -1.4319817211E+00
-1.4285722361E+00   -1.4251789483E+00   -1.4218017426E+00   -1.4184405050E+00
-1.4150951226E+00   -1.4117654834E+00   -1.4084514763E+00   -1.4051529916E+00
-1.4018699203E+00   -1.3986021546E+00   -1.3953495876E+00   -1.3921121138E+00
-1.3888896284E+00   -1.3856820274E+00   -1.3824892083E+00   -1.3793110689E+00
-1.3761475083E+00   -1.3729984263E+00   -1.3698637237E+00   -1.3667433023E+00
-1.3636370647E+00   -1.3605449143E+00   -1.3574667556E+00   -1.3544024938E+00
-1.3513520351E+00   -1.3483152863E+00   -1.3452921553E+00   -1.3422825507E+00
-1.3392863818E+00   -1.3363035590E+00   -1.3333339931E+00   -1.3303775962E+00
-1.3274342806E+00   -1.3245039599E+00   -1.3215865481E+00   -1.3186819602E+00
-1.3157901117E+00   -1.3129109190E+00   -1.3100442993E+00   -1.3071901702E+00
-1.3043484505E+00   -1.3015190594E+00   -1.2987019166E+00   -1.2958969430E+00
-1.2931040599E+00   -1.2903231891E+00   -1.2875542535E+00   -1.2847971762E+00
-1.2820518814E+00   -1.2793182936E+00   -1.2765963381E+00   -1.2738859408E+00
-1.2711870283E+00   -1.2684995277E+00   -1.2658233667E+00   -1.2631584739E+00
-1.2605047780E+00   -1.2578622088E+00   -1.2552306964E+00   -1.2526101715E+00
-1.2500005654E+00   -1.2474018102E+00   -1.2448138381E+00   -1.2422365823E+00
-1.2396699763E+00   -1.2371139543E+00   -1.2345684509E+00   -1.2320334013E+00
-1.2295087412E+00   -1.2269944070E+00   -1.2244903354E+00   -1.2219964636E+00
-1.2195127295E+00   -1.2170390715E+00   -1.2145754282E+00   -1.2121217391E+00
-1.2096779438E+00   -1.2072439828E+00   -1.2048197966E+00   -1.2024053267E+00
-1.2000005146E+00   -1.1976053026E+00   -1.1952196333E+00   -1.1928434497E+00
-1.1904766954E+00   -1.1881193143E+00   -1.1857712510E+00   -1.1834324503E+00
-1.1811028574E+00   -1.1787824181E+00   -1.1764710786E+00   -1.1741687854E+00
-1.1718754856E+00   -1.1695911264E+00   -1.1673156558E+00   -1.1650490220E+00
-1.1627911736E+00   -1.1605420596E+00   -1.1583016294E+00   -1.1560698328E+00
-1.1538466201E+00   -1.1516319418E+00   -1.1494257488E+00   -1.1472279925E+00
-1.1450386245E+00   -1.1428575970E+00   -1.1406848624E+00   -1.1385203734E+00
-1.1363640832E+00   -1.1342159454E+00   -1.1320759137E+00   -1.1299439424E+00
-1.1278199860E+00   -1.1257039994E+00   -1.1235959378E+00   -1.1214957569E+00
-1.1194034124E+00   -1.1173188606E+00   -1.1152420581E+00   -1.1131729617E+00
-1.1111115286E+00   -1.1090577163E+00   -1.1070114826E+00   -1.1049727857E+00
-1.1029415840E+00   -1.1009178362E+00   -1.0989015015E+00   -1.0968925390E+00
-1.0948909085E+00   -1.0928965699E+00   -1.0909094835E+00   -1.0889296097E+00
-1.0869569093E+00   -1.0849913435E+00   -1.0830328735E+00   -1.0810814611E+00
-1.0791370681E+00   -1.0771996568E+00   -1.0752691896E+00   -1.0733456293E+00
-1.0714289388E+00   -1.0695190814E+00   -1.0676160207E+00   -1.0657197204E+00
-1.0638301445E+00   -1.0619472574E+00   -1.0600710236E+00   -1.0582014078E+00
-1.0563383753E+00   -1.0544818911E+00   -1.0526319210E+00   -1.0507884305E+00
-1.0489513859E+00   -1.0471207532E+00   -1.0452964991E+00   -1.0434785902E+00
-1.0416669934E+00   -1.0398616760E+00   -1.0380626054E+00   -1.0362697492E+00
-1.0344830752E+00   -1.0327025515E+00   -1.0309281465E+00   -1.0291598287E+00
-1.0273975667E+00   -1.0256413295E+00   -1.0238910863E+00   -1.0221468064E+00
-1.0204084595E+00   -1.0186760153E+00   -1.0169494437E+00   -1.0152287150E+00
-1.0135137996E+00   -1.0118046681E+00   -1.0101012912E+00   -1.0084036399E+00
-1.0067116855E+00   -1.0050253992E+00   -1.0033447526E+00   -1.0016697176E+00
</PP_LOCAL>
<PP_NONLOCAL>
<PP_BETA.1
type="real"
size="600"
columns="4"
index="1"
angular_momentum="0"
cutoff_radius_index=" 124"
cutoff_radius="    1.2300000000E+00" >
2.3539920402E-08    4.7797443429E-02    9.6045441933E-02    1.4518121485E-01
1.9561560516E-01    2.4772062300E-01    3.0181784986E-01    3.5816796215E-01
4.1696160908E-01    4.7831185149E-01    5.4224833515E-01    6.0871333574E-01
6.7755977303E-01    7.4855125011E-01    8.2136413084E-01    8.9559162513E-01
9.7074980911E-01    1.0462854657E+00    1.1215855922E+00    1.1959883855E+00
1.2687954828E+00    1.3392852094E+00    1.4067265608E+00    1.4703936302E+00
1.5295801830E+00    1.5836140708E+00    1.6318711847E+00    1.6737886492E+00
1.7088769778E+00    1.7367309265E+00    1.7570388091E+00    1.7695900691E+00
1.7742809343E+00    1.7711180244E+00    1.7602198161E+00    1.7418159200E+00
1.7162441651E+00    1.6839455313E+00    1.6454570160E+00    1.6014025639E+00
1.5524822273E+00    1.4994597639E+00    1.4431489104E+00    1.3843986001E+00
1.3240774128E+00    1.2630575676E+00    1.2021987744E+00    1.1423322690E+00
1.0842453522E+00    1.0286667467E+00    9.7625306775E-01    9.2757668715E-01
8.8311523737E-01    8.4324297642E-01    8.0822419362E-01    7.7820879763E-01
7.5323018441E-01    7.3320543693E-01    7.1793786175E-01    7.0712182021E-01
7.0034976555E-01    6.9712135218E-01    6.9685444083E-01    6.9889778443E-01
7.0254514433E-01    7.0705055679E-01    7.1164444513E-01    7.1555025444E-01
7.1800127395E-01    7.1825730708E-01    7.1562085047E-01    7.0945245231E-01
6.9918493504E-01    6.8433618954E-01    6.6452027526E-01    6.3945659416E-01
6.0897694408E-01    5.7303029942E-01    5.3168521194E-01    4.8512977267E-01
4.3366912429E-01    3.7772056345E-01    3.1780632058E-01    2.5454415272E-01
1.8863592896E-01    1.2085442974E-01    5.2028618055E-02   -1.6972327611E-02
-8.5255902355E-02   -1.5192375010E-01   -2.1608937573E-01   -2.7689573869E-01
-3.3353237360E-01   -3.8525169116E-01   -4.3138412808E-01   -4.7135183623E-01
-5.0468062901E-01   -5.3100993713E-01   -5.5010056453E-01   -5.6184007846E-01
-5.6624571421E-01   -5.6346472427E-01   -5.5377215224E-01   -5.3756606381E-01
-5.1536031534E-01   -4.8777499355E-01   -4.5552470362E-01   -4.1940492724E-01
-3.8027671211E-01   -3.3904998457E-01   -2.9666581035E-01   -2.5407794624E-01
-2.1223404139E-01   -1.7205685401E-01   -1.3442585169E-01   -1.0015955504E-01
-6.9998968292E-02   -4.4601708850E-02   -2.4482147796E-02   -1.0025499212E-02
-1.9326636684E-03    6.5180035077E-04    2.4230036402E-04   -1.5607089385E-04
0. 0. 0. 0.
0. 0. 0. 0.
0. 0. 0. 0.
0. 0. 0. 0.
0. 0. 0. 0.
0. 0. 0. 0.
0. 0. 0. 0.
0. 0. 0. 0.
0. 0. 0. 0.
0. 0. 0. 0.
0. 0. 0. 0.
0. 0. 0. 0.
0. 0. 0. 0.
0. 0. 0. 0.
0. 0. 0. 0.
0. 0. 0. 0.
0. 0. 0. 0.
0. 0. 0. 0.
0. 0. 0. 0.
0. 0. 0. 0.
0. 0. 0. 0.
0. 0. 0. 0.
0. 0. 0. 0.
0. 0. 0. 0.
0. 0. 0. 0.
0. 0. 0. 0.
0. 0. 0. 0.
0. 0. 0. 0.
0. 0. 0. 0.
0. 0. 0. 0.
0. 0. 0. 0.
0. 0. 0. 0.
0. 0. 0. 0.
0. 0. 0. 0.
0. 0. 0. 0.
0. 0. 0. 0.
0. 0. 0. 0.
0. 0. 0. 0.
0. 0. 0. 0.
0. 0. 0. 0.
0. 0. 0. 0.
0. 0. 0. 0.
0. 0. 0. 0.
0. 0. 0. 0.
0. 0. 0. 0.
0. 0. 0. 0.
0. 0. 0. 0.
0. 0. 0. 0.
0. 0. 0. 0.
0. 0. 0. 0.
0. 0. 0. 0.
0. 0. 0. 0.
0. 0. 0. 0.
0. 0. 0. 0.
0. 0. 0. 0.
0. 0. 0. 0.
0. 0. 0. 0.
0. 0. 0. 0.
0. 0. 0. 0.
0. 0. 0. 0.
0. 0. 0. 0.
0. 0. 0. 0.
0. 0. 0. 0.
0. 0. 0. 0.
0. 0. 0. 0.
0. 0. 0. 0.
0. 0. 0. 0.
0. 0. 0. 0.
0. 0. 0. 0.
0. 0. 0. 0.
0. 0. 0. 0.
0. 0. 0. 0.
0. 0. 0. 0.
0. 0. 0. 0.
0. 0. 0. 0.
0. 0. 0. 0.
0. 0. 0. 0.
0. 0. 0. 0.
0. 0. 0. 0.
0. 0. 0. 0.
0. 0. 0. 0.
0. 0. 0. 0.
0. 0. 0. 0.
0. 0. 0. 0.
0. 0. 0. 0.
0. 0. 0. 0.
0. 0. 0. 0.
0. 0. 0. 0.
0. 0. 0. 0.
0. 0. 0. 0.
0. 0. 0. 0.
0. 0. 0. 0.
0. 0. 0. 0.
0. 0. 0. 0.
0. 0. 0. 0.
0. 0. 0. 0.
0. 0. 0. 0.
0. 0. 0. 0.
0. 0. 0. 0.
0. 0. 0. 0.
0. 0. 0. 0.
0. 0. 0. 0.
0. 0. 0. 0.
0. 0. 0. 0.
0. 0. 0. 0.
0. 0. 0. 0.
0. 0. 0. 0.
0. 0. 0. 0.
0. 0. 0. 0.
0. 0. 0. 0.
0. 0. 0. 0.
0. 0. 0. 0.
0. 0. 0. 0.
0. 0. 0. 0.
0. 0. 0. 0.
0. 0. 0. 0.
0. 0. 0. 0.
0. 0. 0. 0.
0. 0. 0. 0.
</PP_BETA.1>
<PP_BETA.2
type="real"
size="600"
columns="4"
index="2"
angular_momentum="0"
cutoff_radius_index=" 124"
cutoff_radius="    1.2300000000E+00" >
-4.0365675913E-08    1.3418356961E-02    2.5950634200E-02    3.6733708024E-02
4.4949861522E-02    4.9848235424E-02    5.0764805470E-02    4.7140443724E-02
3.8536661649E-02    2.4648681604E-02    5.3155398284E-03   -1.9473013366E-02
-4.9572982700E-02   -8.4686061488E-02   -1.2436305128E-01   -1.6801071509E-01