<UPF version="2.0.1">
<PP_INFO>
NOTE!!!!
This file is trimmed with a mesh size of 600 from the original version.
Trimming performed at 2023-03-31 09:10:04.873029 by trim_upf.py version 0.1.0

This pseudopotential file has been produced using the code
ONCVPSP  (Optimized Norm-Conservinng Vanderbilt PSeudopotential)
scalar-relativistic version 3.3.0 08/16/2017 by D. R. Hamann
The code is available through a link at URL www.mat-simresearch.com.
Documentation with the package provides a full discription of the
input data below.
While it is not required under the terms of the GNU GPL, it is
suggested that you cite D. R. Hamann, Phys. Rev. B 88, 085117 (2013)
in any publication using these pseudopotentials.
<PP_INPUTFILE>
# ATOM AND REFERENCE CONFIGURATION
# atsym  z   nc   nv     iexc    psfile
Ba 56.00    9    3       4      upf
#
#   n    l    f        energy (Ha)
1    0    2.00
2    0    2.00
2    1    6.00
3    0    2.00
3    1    6.00
3    2   10.00
4    0    2.00
4    1    6.00
4    2   10.00
5    0    2.00
5    1    6.00
6    0    2.00
#
# PSEUDOPOTENTIAL AND OPTIMIZATION
# lmax
2
#
#   l,   rc,      ep,       ncon, nbas, qcut
0   2.15000  -1.23752    4    7   5.20000
1   1.90000  -0.68855    4    8   6.60000
2   2.15000  -0.00000    4    9   6.60000
#
# LOCAL POTENTIAL
# lloc, lpopt,  rc(5),   dvloc0
4    5   1.90000      0.00000
#
# VANDERBILT-KLEINMAN-BYLANDER PROJECTORs
# l, nproj, debl
0    2   1.11882
1    2   2.50000
2    2   3.00000
#
# MODEL CORE CHARGE
# icmod, fcfact, rcfact
3   5.00000   1.25000
#
# LOG DERIVATIVE ANALYSIS
# epsh1, epsh2, depsh
-12.00   12.00    0.02
#
# OUTPUT GRID
# rlmax, drl
6.00    0.01
#
# TEST CONFIGURATIONS
# ncnf
0
# nvcnf
#   n    l    f
</PP_INPUTFILE>
</PP_INFO>
<!--                               -->
<!-- END OF HUMAN READABLE SECTION -->
<!--                               -->
<PP_HEADER
generated="Generated using ONCVPSP code by D. R. Hamann"
author="anonymous"
date="171031"
comment=""
element="Ba"
pseudo_type="NC"
relativistic="scalar"
is_ultrasoft="F"
is_paw="F"
is_coulomb="F"
has_so="F"
has_wfc="F"
has_gipaw="F"
core_correction="T"
functional="PBE"
z_valence="   10.00"
total_psenergy="  -5.12444071114E+01"
rho_cutoff="   1.95700000000E+01"
l_max="2"
l_local="-1"
mesh_size="   600"
number_of_wfc="3"
number_of_proj="6"/>
<PP_MESH>
<PP_R type="real"  size="600" columns="8">
0.0000    0.0100    0.0200    0.0300    0.0400    0.0500    0.0600    0.0700
0.0800    0.0900    0.1000    0.1100    0.1200    0.1300    0.1400    0.1500
0.1600    0.1700    0.1800    0.1900    0.2000    0.2100    0.2200    0.2300
0.2400    0.2500    0.2600    0.2700    0.2800    0.2900    0.3000    0.3100
0.3200    0.3300    0.3400    0.3500    0.3600    0.3700    0.3800    0.3900
0.4000    0.4100    0.4200    0.4300    0.4400    0.4500    0.4600    0.4700
0.4800    0.4900    0.5000    0.5100    0.5200    0.5300    0.5400    0.5500
0.5600    0.5700    0.5800    0.5900    0.6000    0.6100    0.6200    0.6300
0.6400    0.6500    0.6600    0.6700    0.6800    0.6900    0.7000    0.7100
0.7200    0.7300    0.7400    0.7500    0.7600    0.7700    0.7800    0.7900
0.8000    0.8100    0.8200    0.8300    0.8400    0.8500    0.8600    0.8700
0.8800    0.8900    0.9000    0.9100    0.9200    0.9300    0.9400    0.9500
0.9600    0.9700    0.9800    0.9900    1.0000    1.0100    1.0200    1.0300
1.0400    1.0500    1.0600    1.0700    1.0800    1.0900    1.1000    1.1100
1.1200    1.1300    1.1400    1.1500    1.1600    1.1700    1.1800    1.1900
1.2000    1.2100    1.2200    1.2300    1.2400    1.2500    1.2600    1.2700
1.2800    1.2900    1.3000    1.3100    1.3200    1.3300    1.3400    1.3500
1.3600    1.3700    1.3800    1.3900    1.4000    1.4100    1.4200    1.4300
1.4400    1.4500    1.4600    1.4700    1.4800    1.4900    1.5000    1.5100
1.5200    1.5300    1.5400    1.5500    1.5600    1.5700    1.5800    1.5900
1.6000    1.6100    1.6200    1.6300    1.6400    1.6500    1.6600    1.6700
1.6800    1.6900    1.7000    1.7100    1.7200    1.7300    1.7400    1.7500
1.7600    1.7700    1.7800    1.7900    1.8000    1.8100    1.8200    1.8300
1.8400    1.8500    1.8600    1.8700    1.8800    1.8900    1.9000    1.9100
1.9200    1.9300    1.9400    1.9500    1.9600    1.9700    1.9800    1.9900
2.0000    2.0100    2.0200    2.0300    2.0400    2.0500    2.0600    2.0700
2.0800    2.0900    2.1000    2.1100    2.1200    2.1300    2.1400    2.1500
2.1600    2.1700    2.1800    2.1900    2.2000    2.2100    2.2200    2.2300
2.2400    2.2500    2.2600    2.2700    2.2800    2.2900    2.3000    2.3100
2.3200    2.3300    2.3400    2.3500    2.3600    2.3700    2.3800    2.3900
2.4000    2.4100    2.4200    2.4300    2.4400    2.4500    2.4600    2.4700
2.4800    2.4900    2.5000    2.5100    2.5200    2.5300    2.5400    2.5500
2.5600    2.5700    2.5800    2.5900    2.6000    2.6100    2.6200    2.6300
2.6400    2.6500    2.6600    2.6700    2.6800    2.6900    2.7000    2.7100
2.7200    2.7300    2.7400    2.7500    2.7600    2.7700    2.7800    2.7900
2.8000    2.8100    2.8200    2.8300    2.8400    2.8500    2.8600    2.8700
2.8800    2.8900    2.9000    2.9100    2.9200    2.9300    2.9400    2.9500
2.9600    2.9700    2.9800    2.9900    3.0000    3.0100    3.0200    3.0300
3.0400    3.0500    3.0600    3.0700    3.0800    3.0900    3.1000    3.1100
3.1200    3.1300    3.1400    3.1500    3.1600    3.1700    3.1800    3.1900
3.2000    3.2100    3.2200    3.2300    3.2400    3.2500    3.2600    3.2700
3.2800    3.2900    3.3000    3.3100    3.3200    3.3300    3.3400    3.3500
3.3600    3.3700    3.3800    3.3900    3.4000    3.4100    3.4200    3.4300
3.4400    3.4500    3.4600    3.4700    3.4800    3.4900    3.5000    3.5100
3.5200    3.5300    3.5400    3.5500    3.5600    3.5700    3.5800    3.5900
3.6000    3.6100    3.6200    3.6300    3.6400    3.6500    3.6600    3.6700
3.6800    3.6900    3.7000    3.7100    3.7200    3.7300    3.7400    3.7500
3.7600    3.7700    3.7800    3.7900    3.8000    3.8100    3.8200    3.8300
3.8400    3.8500    3.8600    3.8700    3.8800    3.8900    3.9000    3.9100
3.9200    3.9300    3.9400    3.9500    3.9600    3.9700    3.9800    3.9900
4.0000    4.0100    4.0200    4.0300    4.0400    4.0500    4.0600    4.0700
4.0800    4.0900    4.1000    4.1100    4.1200    4.1300    4.1400    4.1500
4.1600    4.1700    4.1800    4.1900    4.2000    4.2100    4.2200    4.2300
4.2400    4.2500    4.2600    4.2700    4.2800    4.2900    4.3000    4.3100
4.3200    4.3300    4.3400    4.3500    4.3600    4.3700    4.3800    4.3900
4.4000    4.4100    4.4200    4.4300    4.4400    4.4500    4.4600    4.4700
4.4800    4.4900    4.5000    4.5100    4.5200    4.5300    4.5400    4.5500
4.5600    4.5700    4.5800    4.5900    4.6000    4.6100    4.6200    4.6300
4.6400    4.6500    4.6600    4.6700    4.6800    4.6900    4.7000    4.7100
4.7200    4.7300    4.7400    4.7500    4.7600    4.7700    4.7800    4.7900
4.8000    4.8100    4.8200    4.8300    4.8400    4.8500    4.8600    4.8700
4.8800    4.8900    4.9000    4.9100    4.9200    4.9300    4.9400    4.9500
4.9600    4.9700    4.9800    4.9900    5.0000    5.0100    5.0200    5.0300
5.0400    5.0500    5.0600    5.0700    5.0800    5.0900    5.1000    5.1100
5.1200    5.1300    5.1400    5.1500    5.1600    5.1700    5.1800    5.1900
5.2000    5.2100    5.2200    5.2300    5.2400    5.2500    5.2600    5.2700
5.2800    5.2900    5.3000    5.3100    5.3200    5.3300    5.3400    5.3500
5.3600    5.3700    5.3800    5.3900    5.4000    5.4100    5.4200    5.4300
5.4400    5.4500    5.4600    5.4700    5.4800    5.4900    5.5000    5.5100
5.5200    5.5300    5.5400    5.5500    5.5600    5.5700    5.5800    5.5900
5.6000    5.6100    5.6200    5.6300    5.6400    5.6500    5.6600    5.6700
5.6800    5.6900    5.7000    5.7100    5.7200    5.7300    5.7400    5.7500
5.7600    5.7700    5.7800    5.7900    5.8000    5.8100    5.8200    5.8300
5.8400    5.8500    5.8600    5.8700    5.8800    5.8900    5.9000    5.9100
5.9200    5.9300    5.9400    5.9500    5.9600    5.9700    5.9800    5.9900
</PP_R>
<PP_RAB type="real"  size="600" columns="8">
0.0100    0.0100    0.0100    0.0100    0.0100    0.0100    0.0100    0.0100
0.0100    0.0100    0.0100    0.0100    0.0100    0.0100    0.0100    0.0100
0.0100    0.0100    0.0100    0.0100    0.0100    0.0100    0.0100    0.0100
0.0100    0.0100    0.0100    0.0100    0.0100    0.0100    0.0100    0.0100
0.0100    0.0100    0.0100    0.0100    0.0100    0.0100    0.0100    0.0100
0.0100    0.0100    0.0100    0.0100    0.0100    0.0100    0.0100    0.0100
0.0100    0.0100    0.0100    0.0100    0.0100    0.0100    0.0100    0.0100
0.0100    0.0100    0.0100    0.0100    0.0100    0.0100    0.0100    0.0100
0.0100    0.0100    0.0100    0.0100    0.0100    0.0100    0.0100    0.0100
0.0100    0.0100    0.0100    0.0100    0.0100    0.0100    0.0100    0.0100
0.0100    0.0100    0.0100    0.0100    0.0100    0.0100    0.0100    0.0100
0.0100    0.0100    0.0100    0.0100    0.0100    0.0100    0.0100    0.0100
0.0100    0.0100    0.0100    0.0100    0.0100    0.0100    0.0100    0.0100
0.0100    0.0100    0.0100    0.0100    0.0100    0.0100    0.0100    0.0100
0.0100    0.0100    0.0100    0.0100    0.0100    0.0100    0.0100    0.0100
0.0100    0.0100    0.0100    0.0100    0.0100    0.0100    0.0100    0.0100
0.0100    0.0100    0.0100    0.0100    0.0100    0.0100    0.0100    0.0100
0.0100    0.0100    0.0100    0.0100    0.0100    0.0100    0.0100    0.0100
0.0100    0.0100    0.0100    0.0100    0.0100    0.0100    0.0100    0.0100
0.0100    0.0100    0.0100    0.0100    0.0100    0.0100    0.0100    0.0100
0.0100    0.0100    0.0100    0.0100    0.0100    0.0100    0.0100    0.0100
0.0100    0.0100    0.0100    0.0100    0.0100    0.0100    0.0100    0.0100
0.0100    0.0100    0.0100    0.0100    0.0100    0.0100    0.0100    0.0100
0.0100    0.0100    0.0100    0.0100    0.0100    0.0100    0.0100    0.0100
0.0100    0.0100    0.0100    0.0100    0.0100    0.0100    0.0100    0.0100
0.0100    0.0100    0.0100    0.0100    0.0100    0.0100    0.0100    0.0100
0.0100    0.0100    0.0100    0.0100    0.0100    0.0100    0.0100    0.0100
0.0100    0.0100    0.0100    0.0100    0.0100    0.0100    0.0100    0.0100
0.0100    0.0100    0.0100    0.0100    0.0100    0.0100    0.0100    0.0100
0.0100    0.0100    0.0100    0.0100    0.0100    0.0100    0.0100    0.0100
0.0100    0.0100    0.0100    0.0100    0.0100    0.0100    0.0100    0.0100
0.0100    0.0100    0.0100    0.0100    0.0100    0.0100    0.0100    0.0100
0.0100    0.0100    0.0100    0.0100    0.0100    0.0100    0.0100    0.0100
0.0100    0.0100    0.0100    0.0100    0.0100    0.0100    0.0100    0.0100
0.0100    0.0100    0.0100    0.0100    0.0100    0.0100    0.0100    0.0100
0.0100    0.0100    0.0100    0.0100    0.0100    0.0100    0.0100    0.0100
0.0100    0.0100    0.0100    0.0100    0.0100    0.0100    0.0100    0.0100
0.0100    0.0100    0.0100    0.0100    0.0100    0.0100    0.0100    0.0100
0.0100    0.0100    0.0100    0.0100    0.0100    0.0100    0.0100    0.0100
0.0100    0.0100    0.0100    0.0100    0.0100    0.0100    0.0100    0.0100
0.0100    0.0100    0.0100    0.0100    0.0100    0.0100    0.0100    0.0100
0.0100    0.0100    0.0100    0.0100    0.0100    0.0100    0.0100    0.0100
0.0100    0.0100    0.0100    0.0100    0.0100    0.0100    0.0100    0.0100
0.0100    0.0100    0.0100    0.0100    0.0100    0.0100    0.0100    0.0100
0.0100    0.0100    0.0100    0.0100    0.0100    0.0100    0.0100    0.0100
0.0100    0.0100    0.0100    0.0100    0.0100    0.0100    0.0100    0.0100
0.0100    0.0100    0.0100    0.0100    0.0100    0.0100    0.0100    0.0100
0.0100    0.0100    0.0100    0.0100    0.0100    0.0100    0.0100    0.0100
0.0100    0.0100    0.0100    0.0100    0.0100    0.0100    0.0100    0.0100
0.0100    0.0100    0.0100    0.0100    0.0100    0.0100    0.0100    0.0100
0.0100    0.0100    0.0100    0.0100    0.0100    0.0100    0.0100    0.0100
0.0100    0.0100    0.0100    0.0100    0.0100    0.0100    0.0100    0.0100
0.0100    0.0100    0.0100    0.0100    0.0100    0.0100    0.0100    0.0100
0.0100    0.0100    0.0100    0.0100    0.0100    0.0100    0.0100    0.0100
0.0100    0.0100    0.0100    0.0100    0.0100    0.0100    0.0100    0.0100
0.0100    0.0100    0.0100    0.0100    0.0100    0.0100    0.0100    0.0100
0.0100    0.0100    0.0100    0.0100    0.0100    0.0100    0.0100    0.0100
0.0100    0.0100    0.0100    0.0100    0.0100    0.0100    0.0100    0.0100
0.0100    0.0100    0.0100    0.0100    0.0100    0.0100    0.0100    0.0100
0.0100    0.0100    0.0100    0.0100    0.0100    0.0100    0.0100    0.0100
0.0100    0.0100    0.0100    0.0100    0.0100    0.0100    0.0100    0.0100
0.0100    0.0100    0.0100    0.0100    0.0100    0.0100    0.0100    0.0100
0.0100    0.0100    0.0100    0.0100    0.0100    0.0100    0.0100    0.0100
0.0100    0.0100    0.0100    0.0100    0.0100    0.0100    0.0100    0.0100
0.0100    0.0100    0.0100    0.0100    0.0100    0.0100    0.0100    0.0100
0.0100    0.0100    0.0100    0.0100    0.0100    0.0100    0.0100    0.0100
0.0100    0.0100    0.0100    0.0100    0.0100    0.0100    0.0100    0.0100
0.0100    0.0100    0.0100    0.0100    0.0100    0.0100    0.0100    0.0100
0.0100    0.0100    0.0100    0.0100    0.0100    0.0100    0.0100    0.0100
0.0100    0.0100    0.0100    0.0100    0.0100    0.0100    0.0100    0.0100
0.0100    0.0100    0.0100    0.0100    0.0100    0.0100    0.0100    0.0100
0.0100    0.0100    0.0100    0.0100    0.0100    0.0100    0.0100    0.0100
0.0100    0.0100    0.0100    0.0100    0.0100    0.0100    0.0100    0.0100
0.0100    0.0100    0.0100    0.0100    0.0100    0.0100    0.0100    0.0100
0.0100    0.0100    0.0100    0.0100    0.0100    0.0100    0.0100    0.0100
</PP_RAB>
</PP_MESH>
<PP_LOCAL type="real"  size="600" columns="4">
-2.1767253027E+01   -2.1766752910E+01   -2.1765252670E+01   -2.1762752664E+01
-2.1759253487E+01   -2.1754755968E+01   -2.1749261174E+01   -2.1742770407E+01
-2.1735285203E+01   -2.1726807331E+01   -2.1717338795E+01   -2.1706881827E+01
-2.1695438887E+01   -2.1683012663E+01   -2.1669606065E+01   -2.1655222224E+01
-2.1639864488E+01   -2.1623536416E+01   -2.1606241778E+01   -2.1587984545E+01
-2.1568768884E+01   -2.1548599157E+01   -2.1527479905E+01   -2.1505415848E+01
-2.1482411873E+01   -2.1458473026E+01   -2.1433604502E+01   -2.1407811633E+01
-2.1381099880E+01   -2.1353474818E+01   -2.1324942126E+01   -2.1295507574E+01
-2.1265177005E+01   -2.1233956328E+01   -2.1201851499E+01   -2.1168868504E+01
-2.1135013352E+01   -2.1100292050E+01   -2.1064710597E+01   -2.1028274959E+01
-2.0990991063E+01   -2.0952864777E+01   -2.0913901896E+01   -2.0874108130E+01
-2.0833489091E+01   -2.0792050275E+01   -2.0749797059E+01   -2.0706734686E+01
-2.0662868254E+01   -2.0618202715E+01   -2.0572742859E+01   -2.0526493319E+01
-2.0479458561E+01   -2.0431642888E+01   -2.0383050436E+01   -2.0333685179E+01
-2.0283550937E+01   -2.0232651375E+01   -2.0180990020E+01   -2.0128570269E+01
-2.0075395402E+01   -2.0021468597E+01   -1.9966792952E+01   -1.9911371500E+01
-1.9855207234E+01   -1.9798303131E+01   -1.9740662174E+01   -1.9682287384E+01
-1.9623181844E+01   -1.9563348735E+01   -1.9502791358E+01   -1.9441513175E+01
-1.9379517833E+01   -1.9316809200E+01   -1.9253391397E+01   -1.9189268825E+01
-1.9124446202E+01   -1.9058928583E+01   -1.8992721398E+01   -1.8925830466E+01
-1.8858262026E+01   -1.8790022755E+01   -1.8721119786E+01   -1.8651560721E+01
-1.8581353645E+01   -1.8510507132E+01   -1.8439030252E+01   -1.8366932572E+01
-1.8294224151E+01   -1.8220915542E+01   -1.8147017776E+01   -1.8072542358E+01
-1.7997501251E+01   -1.7921906859E+01   -1.7845772016E+01   -1.7769109960E+01
-1.7691934318E+01   -1.7614259087E+01   -1.7536098609E+01   -1.7457467554E+01
-1.7378380899E+01   -1.7298853906E+01   -1.7218902109E+01   -1.7138541291E+01
-1.7057787472E+01   -1.6976656892E+01   -1.6895165998E+01   -1.6813331433E+01
-1.6731170026E+01   -1.6648698785E+01   -1.6565934885E+01   -1.6482895667E+01
-1.6399598631E+01   -1.6316061435E+01   -1.6232301886E+01   -1.6148337946E+01
-1.6064187722E+01   -1.5979869470E+01   -1.5895401592E+01   -1.5810802631E+01
-1.5726091272E+01   -1.5641286338E+01   -1.5556406784E+01   -1.5471471695E+01
-1.5386500278E+01   -1.5301511852E+01   -1.5216525844E+01   -1.5131561774E+01
-1.5046639243E+01   -1.4961777920E+01   -1.4876997526E+01   -1.4792317816E+01
-1.4707758558E+01   -1.4623339514E+01   -1.4539080416E+01   -1.4455000943E+01
-1.4371120693E+01   -1.4287459162E+01   -1.4204035707E+01   -1.4120869526E+01
-1.4037979626E+01   -1.3955384792E+01   -1.3873103558E+01   -1.3791154177E+01
-1.3709554594E+01   -1.3628322412E+01   -1.3547474867E+01   -1.3467028797E+01
-1.3387000620E+01   -1.3307406300E+01   -1.3228261330E+01   -1.3149580705E+01
-1.3071378899E+01   -1.2993669846E+01   -1.2916466920E+01   -1.2839782921E+01
-1.2763630051E+01   -1.2688019910E+01   -1.2612963476E+01   -1.2538471096E+01
-1.2464552481E+01   -1.2391216691E+01   -1.2318472135E+01   -1.2246326561E+01
-1.2174787058E+01   -1.2103860051E+01   -1.2033551298E+01   -1.1963865897E+01
-1.1894808279E+01   -1.1826382218E+01   -1.1758590827E+01   -1.1691436569E+01
-1.1624921256E+01   -1.1559046056E+01   -1.1493811502E+01   -1.1429217491E+01
-1.1365263296E+01   -1.1301947570E+01   -1.1239268353E+01   -1.1177223079E+01
-1.1115808581E+01   -1.1055021096E+01   -1.0994856275E+01   -1.0935309185E+01
-1.0876374316E+01   -1.0818045582E+01   -1.0760316331E+01   -1.0703179338E+01
-1.0646626807E+01   -1.0590650397E+01   -1.0535241281E+01   -1.0480390004E+01
-1.0426086933E+01   -1.0372322662E+01   -1.0319088005E+01   -1.0266374095E+01
-1.0214172407E+01   -1.0162474619E+01   -1.0111272364E+01   -1.0060557535E+01
-1.0010322577E+01   -9.9605602869E+00   -9.9112636591E+00   -9.8624258313E+00
-9.8140401813E+00   -9.7661003772E+00   -9.7186003031E+00   -9.6715340710E+00
-9.6248959991E+00   -9.5786805885E+00   -9.5328825229E+00   -9.4874967110E+00
-9.4425181407E+00   -9.3979420593E+00   -9.3537641930E+00   -9.3099808880E+00
-9.2665888863E+00   -9.2235859681E+00   -9.1809704246E+00   -9.1387405138E+00
-9.0968917484E+00   -9.0554193324E+00   -9.0143186279E+00   -8.9735860230E+00
-8.9332178913E+00   -8.8932103812E+00   -8.8535596023E+00   -8.8142617097E+00
-8.7753129492E+00   -8.7367095756E+00   -8.6984478599E+00   -8.6605240742E+00
-8.6229345043E+00   -8.5856754469E+00   -8.5487432089E+00   -8.5121341036E+00
-8.4758444504E+00   -8.4398705744E+00   -8.4042088066E+00   -8.3688554836E+00
-8.3338069485E+00   -8.2990595518E+00   -8.2646096523E+00   -8.2304536187E+00
-8.1965878308E+00   -8.1630086812E+00   -8.1297125776E+00   -8.0966959446E+00
-8.0639552264E+00   -8.0314868889E+00   -7.9992874218E+00   -7.9673533418E+00
-7.9356811944E+00   -7.9042675569E+00   -7.8731090407E+00   -7.8422022936E+00
-7.8115440021E+00   -7.7811308940E+00   -7.7509597403E+00   -7.7210273568E+00
-7.6913306066E+00   -7.6618664012E+00   -7.6326317022E+00   -7.6036235224E+00
-7.5748389271E+00   -7.5462750345E+00   -7.5179290168E+00   -7.4897981004E+00
-7.4618795660E+00   -7.4341707487E+00   -7.4066690377E+00   -7.3793718761E+00
-7.3522767600E+00   -7.3253812378E+00   -7.2986829094E+00   -7.2721794251E+00
-7.2458684841E+00   -7.2197478333E+00   -7.1938152659E+00   -7.1680686199E+00
-7.1425057762E+00   -7.1171246572E+00   -7.0919232252E+00   -7.0668994801E+00
-7.0420514584E+00   -7.0173772310E+00   -6.9928749020E+00   -6.9685426064E+00
-6.9443785094E+00   -6.9203808042E+00   -6.8965477110E+00   -6.8728774758E+00
-6.8493683691E+00   -6.8260186847E+00   -6.8028267393E+00   -6.7797908712E+00
-6.7569094401E+00   -6.7341808263E+00   -6.7116034306E+00   -6.6891756739E+00
-6.6668959973E+00   -6.6447628622E+00   -6.6227747501E+00   -6.6009301634E+00
-6.5792276255E+00   -6.5576656813E+00   -6.5362428979E+00   -6.5149578649E+00
-6.4938091954E+00   -6.4727955266E+00   -6.4519155202E+00   -6.4311678634E+00
-6.4105512692E+00   -6.3900644772E+00   -6.3697062541E+00   -6.3494753939E+00
-6.3293707184E+00   -6.3093910769E+00   -6.2895353472E+00   -6.2698024344E+00
-6.2501912711E+00   -6.2307008170E+00   -6.2113300583E+00   -6.1920780066E+00
-6.1729436980E+00   -6.1539261923E+00   -6.1350245715E+00   -6.1162379381E+00
-6.0975654136E+00   -6.0790061374E+00   -6.0605592640E+00   -6.0422239618E+00
-6.0239994108E+00   -6.0058848010E+00   -5.9878793298E+00   -5.9699822006E+00
-5.9521926206E+00   -5.9345097987E+00   -5.9169329442E+00   -5.8994612646E+00
-5.8820939651E+00   -5.8648302456E+00   -5.8476693006E+00   -5.8306103184E+00
-5.8136524801E+00   -5.7967949581E+00   -5.7800369169E+00   -5.7633775125E+00
-5.7468158930E+00   -5.7303511978E+00   -5.7139825589E+00   -5.6977091014E+00
-5.6815299447E+00   -5.6654442029E+00   -5.6494509862E+00   -5.6335494023E+00
-5.6177385577E+00   -5.6020175595E+00   -5.5863855161E+00   -5.5708415396E+00
-5.5553847465E+00   -5.5400142600E+00   -5.5247292112E+00   -5.5095287403E+00
-5.4944119984E+00   -5.4793781476E+00   -5.4644263642E+00   -5.4495558381E+00
-5.4347657742E+00   -5.4200553930E+00   -5.4054239314E+00   -5.3908706440E+00
-5.3763948022E+00   -5.3619956950E+00   -5.3476726290E+00   -5.3334249292E+00
-5.3192519378E+00   -5.3051530145E+00   -5.2911275362E+00   -5.2771748964E+00
-5.2632945049E+00   -5.2494857872E+00   -5.2357481839E+00   -5.2220811501E+00
-5.2084841543E+00   -5.1949566783E+00   -5.1814982159E+00   -5.1681082727E+00
-5.1547863648E+00   -5.1415320182E+00   -5.1283447681E+00   -5.1152241583E+00
-5.1021697406E+00   -5.0891810733E+00   -5.0762577214E+00   -5.0633992557E+00
-5.0506052523E+00   -5.0378752917E+00   -5.0252089587E+00   -5.0126058414E+00
-5.0000655313E+00   -4.9875876227E+00   -4.9751717123E+00   -4.9628173986E+00
-4.9505242819E+00   -4.9382919642E+00   -4.9261200486E+00   -4.9140081390E+00
-4.9019558405E+00   -4.8899627587E+00   -4.8780284997E+00   -4.8661526704E+00
-4.8543348777E+00   -4.8425747292E+00   -4.8308718327E+00   -4.8192257963E+00
-4.8076362284E+00   -4.7961027379E+00   -4.7846249339E+00   -4.7732024260E+00
-4.7618348245E+00   -4.7505217400E+00   -4.7392627838E+00   -4.7280575683E+00
-4.7169057065E+00   -4.7058068124E+00   -4.6947605010E+00   -4.6837663889E+00
-4.6728240938E+00   -4.6619332349E+00   -4.6510934331E+00   -4.6403043111E+00
-4.6295654935E+00   -4.6188766069E+00   -4.6082372804E+00   -4.5976471450E+00
-4.5871058345E+00   -4.5766129854E+00   -4.5661682368E+00   -4.5557712308E+00
-4.5454216126E+00   -4.5351190304E+00   -4.5248631359E+00   -4.5146535842E+00
-4.5044900339E+00   -4.4943721473E+00   -4.4842995903E+00   -4.4742720321E+00
-4.4642891472E+00   -4.4543506135E+00   -4.4444561127E+00   -4.4346053308E+00
-4.4247979792E+00   -4.4150337371E+00   -4.4053122823E+00   -4.3956333114E+00
-4.3859965302E+00   -4.3764016046E+00   -4.3668481506E+00   -4.3573361313E+00
-4.3478653355E+00   -4.3384355347E+00   -4.3290464712E+00   -4.3196983214E+00
-4.3103903218E+00   -4.3011217629E+00   -4.2918921104E+00   -4.2827008701E+00
-4.2735474241E+00   -4.2644308877E+00   -4.2553521152E+00   -4.2463112502E+00
-4.2373084858E+00   -4.2283440240E+00   -4.2194185278E+00   -4.2105318489E+00
-4.2016834251E+00   -4.1928729782E+00   -4.1841001691E+00   -4.1753646150E+00
-4.1666656485E+00   -4.1580031494E+00   -4.1493768144E+00   -4.1407863200E+00
-4.1322313576E+00   -4.1237116248E+00   -4.1152267997E+00   -4.1067767208E+00
-4.0983611793E+00   -4.0899799816E+00   -4.0816329450E+00   -4.0733199271E+00
-4.0650407800E+00   -4.0567952349E+00   -4.0485830891E+00   -4.0404041381E+00
-4.0322581767E+00   -4.0241449874E+00   -4.0160643654E+00   -4.0080161298E+00
-4.0000000864E+00   -3.9920160424E+00   -3.9840638068E+00   -3.9761431910E+00
-3.9682540069E+00   -3.9603960671E+00   -3.9525691863E+00   -3.9447731808E+00
-3.9370078683E+00   -3.9292730678E+00   -3.9215685999E+00   -3.9138942864E+00
-3.9062499508E+00   -3.8986354178E+00   -3.8910505132E+00   -3.8834950647E+00
-3.8759689009E+00   -3.8684718519E+00   -3.8610037491E+00   -3.8535644252E+00
-3.8461537141E+00   -3.8387714512E+00   -3.8314174728E+00   -3.8240916168E+00
-3.8167937221E+00   -3.8095236291E+00   -3.8022811790E+00   -3.7950662146E+00
-3.7878785797E+00   -3.7807181194E+00   -3.7735846797E+00   -3.7664781080E+00
-3.7593982529E+00   -3.7523449640E+00   -3.7453180920E+00   -3.7383174887E+00
-3.7313430072E+00   -3.7243945015E+00   -3.7174718268E+00   -3.7105748394E+00
-3.7037033964E+00   -3.6968573563E+00   -3.6900365784E+00   -3.6832409233E+00
-3.6764702522E+00   -3.6697244278E+00   -3.6630033135E+00   -3.6563067737E+00
-3.6496346740E+00   -3.6429868808E+00   -3.6363632615E+00   -3.6297636845E+00
-3.6231880191E+00   -3.6166361356E+00   -3.6101079052E+00   -3.6036032002E+00
-3.5971218934E+00   -3.5906638590E+00   -3.5842289718E+00   -3.5778171075E+00
-3.5714281429E+00   -3.5650619555E+00   -3.5587184237E+00   -3.5523974267E+00
-3.5460988447E+00   -3.5398225587E+00   -3.5335684505E+00   -3.5273364028E+00
-3.5211262991E+00   -3.5149380235E+00   -3.5087714614E+00   -3.5026264985E+00
-3.4965030217E+00   -3.4904009183E+00   -3.4843200767E+00   -3.4782603860E+00
-3.4722217360E+00   -3.4662040174E+00   -3.4602071214E+00   -3.4542309401E+00
-3.4482753665E+00   -3.4423402941E+00   -3.4364256173E+00   -3.4305312311E+00
-3.4246570312E+00   -3.4188029142E+00   -3.4129687772E+00   -3.4071545181E+00
-3.4013600355E+00   -3.3955852286E+00   -3.3898299975E+00   -3.3840942427E+00
-3.3783778656E+00   -3.3726807681E+00   -3.3670028528E+00   -3.3613440231E+00
-3.3557041828E+00   -3.3500832365E+00   -3.3444810895E+00   -3.3388976476E+00
</PP_LOCAL>
<PP_NONLOCAL>
<PP_BETA.1
type="real"
size="600"
columns="4"
index="1"
angular_momentum="0"
cutoff_radius_index=" 220"
cutoff_radius="    2.1900000000E+00" >
5.7960025668E-12    2.6414244398E-02    5.2831185363E-02    7.9253434232E-02
1.0568343227E-01    1.3212336662E-01    1.5857508737E-01    1.8504002622E-01
2.1151911702E-01    2.3801271862E-01    2.6452054032E-01    2.9104157037E-01
3.1757400774E-01    3.4411519756E-01    3.7066157056E-01    3.9720858669E-01
4.2375068335E-01    4.5028122839E-01    4.7679247813E-01    5.0327554068E-01
5.2972034474E-01    5.5611561400E-01    5.8244884739E-01    6.0870630534E-01
6.3487300196E-01    6.6093270352E-01    6.8686793311E-01    7.1265998155E-01
7.3828892458E-01    7.6373364639E-01    7.8897186932E-01    8.1398018979E-01
8.3873412036E-01    8.6320813770E-01    8.8737573654E-01    9.1120948920E-01
9.3468111077E-01    9.5776152953E-01    9.8042096249E-01    1.0026289958E+00
1.0243546695E+00    1.0455665674E+00    1.0662329092E+00    1.0863216486E+00
1.1058005725E+00    1.1246374045E+00    1.1427999107E+00    1.1602560072E+00
1.1769738700E+00    1.1929220457E+00    1.2080695637E+00    1.2223860486E+00
1.2358418323E+00    1.2484080666E+00    1.2600568346E+00    1.2707612602E+00
1.2804956173E+00    1.2892354356E+00    1.2969576044E+00    1.3036404736E+00
1.3092639511E+00    1.3138095961E+00    1.3172607088E+00    1.3196024150E+00
1.3208217459E+00    1.3209077131E+00    1.3198513767E+00    1.3176459091E+00
1.3142866511E+00    1.3097711620E+00    1.3040992635E+00    1.2972730755E+00
1.2892970455E+00    1.2801779701E+00    1.2699250095E+00    1.2585496941E+00
1.2460659227E+00    1.2324899543E+00    1.2178403907E+00    1.2021381519E+00
1.1854064439E+00    1.1676707178E+00    1.1489586228E+00    1.1292999496E+00
1.1087265687E+00    1.0872723593E+00    1.0649731327E+00    1.0418665487E+00
1.0179920244E+00    9.9339063843E-01    9.6810502790E-01    9.4217928062E-01
9.1565882173E-01    8.8859029565E-01    8.6102144362E-01    8.3300097724E-01
8.0457844846E-01    7.7580411653E-01    7.4672881230E-01    7.1740380045E-01
6.8788064002E-01    6.5821104386E-01    6.2844673743E-01    5.9863931753E-01
5.6884011133E-01    5.3910003643E-01    5.0946946224E-01    4.7999807335E-01
4.5073473529E-01    4.2172736318E-01    3.9302279379E-01    3.6466666145E-01
3.3670327825E-01    3.0917551895E-01    2.8212471108E-01    2.5559053051E-01
2.2961090298E-01    2.0422191188E-01    1.7945771252E-01    1.5535045342E-01
1.3193020458E-01    1.0922489319E-01    8.7260246940E-02    6.6059745017E-02
4.5644577067E-02    2.6033610109E-02    7.2433635698E-03   -1.0712007556E-02
-2.7820721415E-02   -4.4073369859E-02   -5.9462910950E-02   -7.3984653492E-02
-8.7636233677E-02   -1.0041758404E-01   -1.1233089486E-01   -1.2338056829E-01
-1.3357316534E-01   -1.4291734612E-01   -1.5142380353E-01   -1.5910519077E-01
-1.6597604299E-01   -1.7205269351E-01   -1.7735318487E-01   -1.8189717524E-01
-1.8570584057E-01   -1.8880177284E-01   -1.9120887497E-01   -1.9295225283E-01
-1.9405810472E-01   -1.9455360884E-01   -1.9446680934E-01   -1.9382650121E-01
-1.9266211463E-01   -1.9100359924E-01   -1.8888130873E-01   -1.8632588622E-01
-1.8336815096E-01   -1.8003898667E-01   -1.7636923196E-01   -1.7238957333E-01
-1.6813044094E-01   -1.6362190778E-01   -1.5889359227E-01   -1.5397456490E-01
-1.4889325895E-01   -1.4367738579E-01   -1.3835385476E-01   -1.3294869806E-01
-1.2748700066E-01   -1.2199283550E-01   -1.1648920396E-01   -1.1099798190E-01
-1.0553987106E-01   -1.0013435610E-01   -9.4799667031E-02   -8.9552747245E-02
-8.4409226797E-02   -7.9383401168E-02   -7.4488214942E-02   -6.9735250786E-02
-6.5134722904E-02   -6.0695475419E-02   -5.6424984797E-02   -5.2329366606E-02
-4.8413385863E-02   -4.4680469914E-02   -4.1132729272E-02   -3.7770969928E-02
-3.4594721983E-02   -3.1602290316E-02   -2.8790736111E-02   -2.6155798425E-02
-2.3692217261E-02   -2.1393904870E-02   -1.9254176319E-02   -1.7266065451E-02
-1.5422505648E-02   -1.3716341980E-02   -1.2140383584E-02   -1.0687549695E-02
-9.3509334658E-03   -8.1238906761E-03   -7.0001204306E-03   -5.9737414388E-03
-5.0393646333E-03   -4.1921624398E-03   -3.4279304594E-03   -2.7431448136E-03