<UPF version="2.0.1">
<PP_INFO>
NOTE!!!!
This file is trimmed with a mesh size of 600 from the original version.
Trimming performed at 2023-03-31 09:10:04.981950 by trim_upf.py version 0.1.0

This pseudopotential file has been produced using the code
ONCVPSP  (Optimized Norm-Conservinng Vanderbilt PSeudopotential)
scalar-relativistic version 3.3.0 08/16/2017 by D. R. Hamann
The code is available through a link at URL www.mat-simresearch.com.
Documentation with the package provides a full discription of the
input data below.
While it is not required under the terms of the GNU GPL, it is
suggested that you cite D. R. Hamann, Phys. Rev. B 88, 085117 (2013)
in any publication using these pseudopotentials.
<PP_INPUTFILE>
# ATOM AND REFERENCE CONFIGURATION
# atsym  z   nc   nv     iexc    psfile
Be  4.00    0    2       4      upf
#
#   n    l    f        energy (Ha)
1    0    2.00
2    0    2.00
#
# PSEUDOPOTENTIAL AND OPTIMIZATION
# lmax
1
#
#   l,   rc,      ep,       ncon, nbas, qcut
0   1.35000  -3.90326    4    8   9.20000
1   1.10000   0.00000    4    8   9.40000
#
# LOCAL POTENTIAL
# lloc, lpopt,  rc(5),   dvloc0
4    5   0.95000      0.00000
#
# VANDERBILT-KLEINMAN-BYLANDER PROJECTORs
# l, nproj, debl
0    2   3.69710
1    2   1.00000
#
# MODEL CORE CHARGE
# icmod, fcfact, rcfact
0   0.00000   0.00000
#
# LOG DERIVATIVE ANALYSIS
# epsh1, epsh2, depsh
-12.00   12.00    0.02
#
# OUTPUT GRID
# rlmax, drl
4.00    0.01
#
# TEST CONFIGURATIONS
# ncnf
0
# nvcnf
#   n    l    f
</PP_INPUTFILE>
</PP_INFO>
<!--                               -->
<!-- END OF HUMAN READABLE SECTION -->
<!--                               -->
<PP_HEADER
generated="Generated using ONCVPSP code by D. R. Hamann"
author="anonymous"
date="171031"
comment=""
element="Be"
pseudo_type="NC"
relativistic="scalar"
is_ultrasoft="F"
is_paw="F"
is_coulomb="F"
has_so="F"
has_wfc="F"
has_gipaw="F"
core_correction="F"
functional="PBE"
z_valence="    4.00"
total_psenergy="  -2.76360198143E+01"
rho_cutoff="   1.35700000000E+01"
l_max="1"
l_local="-1"
mesh_size="   600"
number_of_wfc="2"
number_of_proj="4"/>
<PP_MESH>
<PP_R type="real"  size="600" columns="8">
0.0000    0.0100    0.0200    0.0300    0.0400    0.0500    0.0600    0.0700
0.0800    0.0900    0.1000    0.1100    0.1200    0.1300    0.1400    0.1500
0.1600    0.1700    0.1800    0.1900    0.2000    0.2100    0.2200    0.2300
0.2400    0.2500    0.2600    0.2700    0.2800    0.2900    0.3000    0.3100
0.3200    0.3300    0.3400    0.3500    0.3600    0.3700    0.3800    0.3900
0.4000    0.4100    0.4200    0.4300    0.4400    0.4500    0.4600    0.4700
0.4800    0.4900    0.5000    0.5100    0.5200    0.5300    0.5400    0.5500
0.5600    0.5700    0.5800    0.5900    0.6000    0.6100    0.6200    0.6300
0.6400    0.6500    0.6600    0.6700    0.6800    0.6900    0.7000    0.7100
0.7200    0.7300    0.7400    0.7500    0.7600    0.7700    0.7800    0.7900
0.8000    0.8100    0.8200    0.8300    0.8400    0.8500    0.8600    0.8700
0.8800    0.8900    0.9000    0.9100    0.9200    0.9300    0.9400    0.9500
0.9600    0.9700    0.9800    0.9900    1.0000    1.0100    1.0200    1.0300
1.0400    1.0500    1.0600    1.0700    1.0800    1.0900    1.1000    1.1100
1.1200    1.1300    1.1400    1.1500    1.1600    1.1700    1.1800    1.1900
1.2000    1.2100    1.2200    1.2300    1.2400    1.2500    1.2600    1.2700
1.2800    1.2900    1.3000    1.3100    1.3200    1.3300    1.3400    1.3500
1.3600    1.3700    1.3800    1.3900    1.4000    1.4100    1.4200    1.4300
1.4400    1.4500    1.4600    1.4700    1.4800    1.4900    1.5000    1.5100
1.5200    1.5300    1.5400    1.5500    1.5600    1.5700    1.5800    1.5900
1.6000    1.6100    1.6200    1.6300    1.6400    1.6500    1.6600    1.6700
1.6800    1.6900    1.7000    1.7100    1.7200    1.7300    1.7400    1.7500
1.7600    1.7700    1.7800    1.7900    1.8000    1.8100    1.8200    1.8300
1.8400    1.8500    1.8600    1.8700    1.8800    1.8900    1.9000    1.9100
1.9200    1.9300    1.9400    1.9500    1.9600    1.9700    1.9800    1.9900
2.0000    2.0100    2.0200    2.0300    2.0400    2.0500    2.0600    2.0700
2.0800    2.0900    2.1000    2.1100    2.1200    2.1300    2.1400    2.1500
2.1600    2.1700    2.1800    2.1900    2.2000    2.2100    2.2200    2.2300
2.2400    2.2500    2.2600    2.2700    2.2800    2.2900    2.3000    2.3100
2.3200    2.3300    2.3400    2.3500    2.3600    2.3700    2.3800    2.3900
2.4000    2.4100    2.4200    2.4300    2.4400    2.4500    2.4600    2.4700
2.4800    2.4900    2.5000    2.5100    2.5200    2.5300    2.5400    2.5500
2.5600    2.5700    2.5800    2.5900    2.6000    2.6100    2.6200    2.6300
2.6400    2.6500    2.6600    2.6700    2.6800    2.6900    2.7000    2.7100
2.7200    2.7300    2.7400    2.7500    2.7600    2.7700    2.7800    2.7900
2.8000    2.8100    2.8200    2.8300    2.8400    2.8500    2.8600    2.8700
2.8800    2.8900    2.9000    2.9100    2.9200    2.9300    2.9400    2.9500
2.9600    2.9700    2.9800    2.9900    3.0000    3.0100    3.0200    3.0300
3.0400    3.0500    3.0600    3.0700    3.0800    3.0900    3.1000    3.1100
3.1200    3.1300    3.1400    3.1500    3.1600    3.1700    3.1800    3.1900
3.2000    3.2100    3.2200    3.2300    3.2400    3.2500    3.2600    3.2700
3.2800    3.2900    3.3000    3.3100    3.3200    3.3300    3.3400    3.3500
3.3600    3.3700    3.3800    3.3900    3.4000    3.4100    3.4200    3.4300
3.4400    3.4500    3.4600    3.4700    3.4800    3.4900    3.5000    3.5100
3.5200    3.5300    3.5400    3.5500    3.5600    3.5700    3.5800    3.5900
3.6000    3.6100    3.6200    3.6300    3.6400    3.6500    3.6600    3.6700
3.6800    3.6900    3.7000    3.7100    3.7200    3.7300    3.7400    3.7500
3.7600    3.7700    3.7800    3.7900    3.8000    3.8100    3.8200    3.8300
3.8400    3.8500    3.8600    3.8700    3.8800    3.8900    3.9000    3.9100
3.9200    3.9300    3.9400    3.9500    3.9600    3.9700    3.9800    3.9900
4.0000    4.0100    4.0200    4.0300    4.0400    4.0500    4.0600    4.0700
4.0800    4.0900    4.1000    4.1100    4.1200    4.1300    4.1400    4.1500
4.1600    4.1700    4.1800    4.1900    4.2000    4.2100    4.2200    4.2300
4.2400    4.2500    4.2600    4.2700    4.2800    4.2900    4.3000    4.3100
4.3200    4.3300    4.3400    4.3500    4.3600    4.3700    4.3800    4.3900
4.4000    4.4100    4.4200    4.4300    4.4400    4.4500    4.4600    4.4700
4.4800    4.4900    4.5000    4.5100    4.5200    4.5300    4.5400    4.5500
4.5600    4.5700    4.5800    4.5900    4.6000    4.6100    4.6200    4.6300
4.6400    4.6500    4.6600    4.6700    4.6800    4.6900    4.7000    4.7100
4.7200    4.7300    4.7400    4.7500    4.7600    4.7700    4.7800    4.7900
4.8000    4.8100    4.8200    4.8300    4.8400    4.8500    4.8600    4.8700
4.8800    4.8900    4.9000    4.9100    4.9200    4.9300    4.9400    4.9500
4.9600    4.9700    4.9800    4.9900    5.0000    5.0100    5.0200    5.0300
5.0400    5.0500    5.0600    5.0700    5.0800    5.0900    5.1000    5.1100
5.1200    5.1300    5.1400    5.1500    5.1600    5.1700    5.1800    5.1900
5.2000    5.2100    5.2200    5.2300    5.2400    5.2500    5.2600    5.2700
5.2800    5.2900    5.3000    5.3100    5.3200    5.3300    5.3400    5.3500
5.3600    5.3700    5.3800    5.3900    5.4000    5.4100    5.4200    5.4300
5.4400    5.4500    5.4600    5.4700    5.4800    5.4900    5.5000    5.5100
5.5200    5.5300    5.5400    5.5500    5.5600    5.5700    5.5800    5.5900
5.6000    5.6100    5.6200    5.6300    5.6400    5.6500    5.6600    5.6700
5.6800    5.6900    5.7000    5.7100    5.7200    5.7300    5.7400    5.7500
5.7600    5.7700    5.7800    5.7900    5.8000    5.8100    5.8200    5.8300
5.8400    5.8500    5.8600    5.8700    5.8800    5.8900    5.9000    5.9100
5.9200    5.9300    5.9400    5.9500    5.9600    5.9700    5.9800    5.9900
</PP_R>
<PP_RAB type="real"  size="600" columns="8">
0.0100    0.0100    0.0100    0.0100    0.0100    0.0100    0.0100    0.0100
0.0100    0.0100    0.0100    0.0100    0.0100    0.0100    0.0100    0.0100
0.0100    0.0100    0.0100    0.0100    0.0100    0.0100    0.0100    0.0100
0.0100    0.0100    0.0100    0.0100    0.0100    0.0100    0.0100    0.0100
0.0100    0.0100    0.0100    0.0100    0.0100    0.0100    0.0100    0.0100
0.0100    0.0100    0.0100    0.0100    0.0100    0.0100    0.0100    0.0100
0.0100    0.0100    0.0100    0.0100    0.0100    0.0100    0.0100    0.0100
0.0100    0.0100    0.0100    0.0100    0.0100    0.0100    0.0100    0.0100
0.0100    0.0100    0.0100    0.0100    0.0100    0.0100    0.0100    0.0100
0.0100    0.0100    0.0100    0.0100    0.0100    0.0100    0.0100    0.0100
0.0100    0.0100    0.0100    0.0100    0.0100    0.0100    0.0100    0.0100
0.0100    0.0100    0.0100    0.0100    0.0100    0.0100    0.0100    0.0100
0.0100    0.0100    0.0100    0.0100    0.0100    0.0100    0.0100    0.0100
0.0100    0.0100    0.0100    0.0100    0.0100    0.0100    0.0100    0.0100
0.0100    0.0100    0.0100    0.0100    0.0100    0.0100    0.0100    0.0100
0.0100    0.0100    0.0100    0.0100    0.0100    0.0100    0.0100    0.0100
0.0100    0.0100    0.0100    0.0100    0.0100    0.0100    0.0100    0.0100
0.0100    0.0100    0.0100    0.0100    0.0100    0.0100    0.0100    0.0100
0.0100    0.0100    0.0100    0.0100    0.0100    0.0100    0.0100    0.0100
0.0100    0.0100    0.0100    0.0100    0.0100    0.0100    0.0100    0.0100
0.0100    0.0100    0.0100    0.0100    0.0100    0.0100    0.0100    0.0100
0.0100    0.0100    0.0100    0.0100    0.0100    0.0100    0.0100    0.0100
0.0100    0.0100    0.0100    0.0100    0.0100    0.0100    0.0100    0.0100
0.0100    0.0100    0.0100    0.0100    0.0100    0.0100    0.0100    0.0100
0.0100    0.0100    0.0100    0.0100    0.0100    0.0100    0.0100    0.0100
0.0100    0.0100    0.0100    0.0100    0.0100    0.0100    0.0100    0.0100
0.0100    0.0100    0.0100    0.0100    0.0100    0.0100    0.0100    0.0100
0.0100    0.0100    0.0100    0.0100    0.0100    0.0100    0.0100    0.0100
0.0100    0.0100    0.0100    0.0100    0.0100    0.0100    0.0100    0.0100
0.0100    0.0100    0.0100    0.0100    0.0100    0.0100    0.0100    0.0100
0.0100    0.0100    0.0100    0.0100    0.0100    0.0100    0.0100    0.0100
0.0100    0.0100    0.0100    0.0100    0.0100    0.0100    0.0100    0.0100
0.0100    0.0100    0.0100    0.0100    0.0100    0.0100    0.0100    0.0100
0.0100    0.0100    0.0100    0.0100    0.0100    0.0100    0.0100    0.0100
0.0100    0.0100    0.0100    0.0100    0.0100    0.0100    0.0100    0.0100
0.0100    0.0100    0.0100    0.0100    0.0100    0.0100    0.0100    0.0100
0.0100    0.0100    0.0100    0.0100    0.0100    0.0100    0.0100    0.0100
0.0100    0.0100    0.0100    0.0100    0.0100    0.0100    0.0100    0.0100
0.0100    0.0100    0.0100    0.0100    0.0100    0.0100    0.0100    0.0100
0.0100    0.0100    0.0100    0.0100    0.0100    0.0100    0.0100    0.0100
0.0100    0.0100    0.0100    0.0100    0.0100    0.0100    0.0100    0.0100
0.0100    0.0100    0.0100    0.0100    0.0100    0.0100    0.0100    0.0100
0.0100    0.0100    0.0100    0.0100    0.0100    0.0100    0.0100    0.0100
0.0100    0.0100    0.0100    0.0100    0.0100    0.0100    0.0100    0.0100
0.0100    0.0100    0.0100    0.0100    0.0100    0.0100    0.0100    0.0100
0.0100    0.0100    0.0100    0.0100    0.0100    0.0100    0.0100    0.0100
0.0100    0.0100    0.0100    0.0100    0.0100    0.0100    0.0100    0.0100
0.0100    0.0100    0.0100    0.0100    0.0100    0.0100    0.0100    0.0100
0.0100    0.0100    0.0100    0.0100    0.0100    0.0100    0.0100    0.0100
0.0100    0.0100    0.0100    0.0100    0.0100    0.0100    0.0100    0.0100
0.0100    0.0100    0.0100    0.0100    0.0100    0.0100    0.0100    0.0100
0.0100    0.0100    0.0100    0.0100    0.0100    0.0100    0.0100    0.0100
0.0100    0.0100    0.0100    0.0100    0.0100    0.0100    0.0100    0.0100
0.0100    0.0100    0.0100    0.0100    0.0100    0.0100    0.0100    0.0100
0.0100    0.0100    0.0100    0.0100    0.0100    0.0100    0.0100    0.0100
0.0100    0.0100    0.0100    0.0100    0.0100    0.0100    0.0100    0.0100
0.0100    0.0100    0.0100    0.0100    0.0100    0.0100    0.0100    0.0100
0.0100    0.0100    0.0100    0.0100    0.0100    0.0100    0.0100    0.0100
0.0100    0.0100    0.0100    0.0100    0.0100    0.0100    0.0100    0.0100
0.0100    0.0100    0.0100    0.0100    0.0100    0.0100    0.0100    0.0100
0.0100    0.0100    0.0100    0.0100    0.0100    0.0100    0.0100    0.0100
0.0100    0.0100    0.0100    0.0100    0.0100    0.0100    0.0100    0.0100
0.0100    0.0100    0.0100    0.0100    0.0100    0.0100    0.0100    0.0100
0.0100    0.0100    0.0100    0.0100    0.0100    0.0100    0.0100    0.0100
0.0100    0.0100    0.0100    0.0100    0.0100    0.0100    0.0100    0.0100
0.0100    0.0100    0.0100    0.0100    0.0100    0.0100    0.0100    0.0100
0.0100    0.0100    0.0100    0.0100    0.0100    0.0100    0.0100    0.0100
0.0100    0.0100    0.0100    0.0100    0.0100    0.0100    0.0100    0.0100
0.0100    0.0100    0.0100    0.0100    0.0100    0.0100    0.0100    0.0100
0.0100    0.0100    0.0100    0.0100    0.0100    0.0100    0.0100    0.0100
0.0100    0.0100    0.0100    0.0100    0.0100    0.0100    0.0100    0.0100
0.0100    0.0100    0.0100    0.0100    0.0100    0.0100    0.0100    0.0100
0.0100    0.0100    0.0100    0.0100    0.0100    0.0100    0.0100    0.0100
0.0100    0.0100    0.0100    0.0100    0.0100    0.0100    0.0100    0.0100
0.0100    0.0100    0.0100    0.0100    0.0100    0.0100    0.0100    0.0100
</PP_RAB>
</PP_MESH>
<PP_LOCAL type="real"  size="600" columns="4">
-1.8557401270E+01   -1.8554011189E+01   -1.8543854838E+01   -1.8526973633E+01
-1.8503435624E+01   -1.8473334095E+01   -1.8436785715E+01   -1.8393928318E+01
-1.8344918424E+01   -1.8289928615E+01   -1.8229144878E+01   -1.8162763998E+01
-1.8090991101E+01   -1.8014037403E+01   -1.7932118213E+01   -1.7845451220E+01
-1.7754255072E+01   -1.7658748232E+01   -1.7559148112E+01   -1.7455670439E+01
-1.7348528828E+01   -1.7237934536E+01   -1.7124096342E+01   -1.7007220535E+01
-1.6887510979E+01   -1.6765169208E+01   -1.6640394560E+01   -1.6513384293E+01
-1.6384333700E+01   -1.6253436187E+01   -1.6120883318E+01   -1.5986864810E+01
-1.5851568479E+01   -1.5715180132E+01   -1.5577883391E+01   -1.5439859459E+01
-1.5301286812E+01   -1.5162340820E+01   -1.5023193287E+01   -1.4884011904E+01
-1.4744959610E+01   -1.4606193849E+01   -1.4467865720E+01   -1.4330119014E+01
-1.4193089132E+01   -1.4056901878E+01   -1.3921672153E+01   -1.3787502544E+01
-1.3654481846E+01   -1.3522683566E+01   -1.3392164447E+01   -1.3262963111E+01
-1.3135098890E+01   -1.3008570974E+01   -1.2883357972E+01   -1.2759418010E+01
-1.2636689473E+01   -1.2515092472E+01   -1.2394531072E+01   -1.2274896301E+01
-1.2156069872E+01   -1.2037928496E+01   -1.1920348634E+01   -1.1803211451E+01
-1.1686407719E+01   -1.1569842417E+01   -1.1453438732E+01   -1.1337141265E+01
-1.1220918221E+01   -1.1104762477E+01   -1.0988691465E+01   -1.0872745881E+01
-1.0756987319E+01   -1.0641494964E+01   -1.0526361542E+01   -1.0411688749E+01
-1.0297582406E+01   -1.0184147573E+01   -1.0071483856E+01   -9.9596811062E+00
-9.8488156972E+00   -9.7389475274E+00   -9.6301178640E+00   -9.5223481351E+00
-9.4156397554E+00   -9.3099750712E+00   -9.2053195197E+00   -9.1016251103E+00
-8.9988353580E+00   -8.8968918069E+00   -8.7957422763E+00   -8.6953509063E+00
-8.5957099543E+00   -8.4968530389E+00   -8.3988692020E+00   -8.3019164842E+00
-8.2062322656E+00   -8.1121438165E+00   -8.0200942296E+00   -7.9306754755E+00
-7.8446163159E+00   -7.7627378189E+00   -7.6858782780E+00   -7.6147850968E+00
-7.5499827761E+00   -7.4916355540E+00   -7.4394342756E+00   -7.3925419159E+00
-7.3496261382E+00   -7.3089883166E+00   -7.2687758544E+00   -7.2272333548E+00
-7.1829355415E+00   -7.1349528542E+00   -7.0829176868E+00   -7.0269887376E+00
-6.9677410796E+00   -6.9060142649E+00   -6.8427562105E+00   -6.7788917364E+00
-6.7152282986E+00   -6.6524036309E+00   -6.5908712525E+00   -6.5309116942E+00
-6.4726609787E+00   -6.4161452447E+00   -6.3613150013E+00   -6.3080752422E+00
-6.2563084841E+00   -6.2058914237E+00   -6.1567057121E+00   -6.1086435931E+00
-6.0616111252E+00   -6.0155285908E+00   -5.9703296709E+00   -5.9259548412E+00
-5.8823399774E+00   -5.8394157520E+00   -5.7971131478E+00   -5.7554051473E+00
-5.7142926802E+00   -5.6737651223E+00   -5.6338100478E+00   -5.5944134842E+00
-5.5555632873E+00   -5.5172491287E+00   -5.4794598829E+00   -5.4421846953E+00
-5.4054131922E+00   -5.3691352482E+00   -5.3333409905E+00   -5.2980208122E+00
-5.2631653594E+00   -5.2287655222E+00   -5.1948124269E+00   -5.1612974287E+00
-5.1282121040E+00   -5.0955482438E+00   -5.0632978467E+00   -5.0314531126E+00
-5.0000064359E+00   -4.9689504001E+00   -4.9382777718E+00   -4.9079814948E+00
-4.8780546850E+00   -4.8484906252E+00   -4.8192827599E+00   -4.7904246907E+00
-4.7619101713E+00   -4.7337331034E+00   -4.7058875320E+00   -4.6783676415E+00
-4.6511677514E+00   -4.6242823126E+00   -4.5977059036E+00   -4.5714332266E+00
-4.5454591044E+00   -4.5197784768E+00   -4.4943863972E+00   -4.4692780294E+00
-4.4444486450E+00   -4.4198936198E+00   -4.3956084314E+00   -4.3715886562E+00
-4.3478299668E+00   -4.3243281292E+00   -4.3010790007E+00   -4.2780785270E+00
-4.2553227402E+00   -4.2328077564E+00   -4.2105297732E+00   -4.1884850683E+00
-4.1666699964E+00   -4.1450809883E+00   -4.1237145480E+00   -4.1025672513E+00
-4.0816357440E+00   -4.0609167400E+00   -4.0404070194E+00   -4.0201034272E+00
-4.0000028714E+00   -3.9801023217E+00   -3.9603988076E+00   -3.9408894172E+00
-3.9215712958E+00   -3.9024416442E+00   -3.8834977179E+00   -3.8647368250E+00
-3.8461563257E+00   -3.8277536306E+00   -3.8095261995E+00   -3.7914715407E+00
-3.7735872091E+00   -3.7558708059E+00   -3.7383199768E+00   -3.7209324115E+00
-3.7037058425E+00   -3.6866380439E+00   -3.6697268310E+00   -3.6529700586E+00
-3.6363656208E+00   -3.6199114496E+00   -3.6036055145E+00   -3.5874458212E+00
-3.5714304111E+00   -3.5555573605E+00   -3.5398247795E+00   -3.5242308119E+00
-3.5087736337E+00   -3.4934514529E+00   -3.4782625087E+00   -3.4632050707E+00
-3.4482774385E+00   -3.4334779407E+00   -3.4188049345E+00   -3.4042568052E+00
-3.3898319654E+00   -3.3755288544E+00   -3.3613459378E+00   -3.3472817070E+00
-3.3333346783E+00   -3.3195033928E+00   -3.3057864157E+00   -3.2921823357E+00
-3.2786897648E+00   -3.2653073375E+00   -3.2520337107E+00   -3.2388675629E+00
-3.2258075939E+00   -3.2128525244E+00   -3.2000010958E+00   -3.1872520691E+00
-3.1746042255E+00   -3.1620563650E+00   -3.1496073068E+00   -3.1372558884E+00
-3.1250009658E+00   -3.1128414124E+00   -3.1007761193E+00   -3.0888039947E+00
-3.0769239636E+00   -3.0651349675E+00   -3.0534359638E+00   -3.0418259263E+00
-3.0303038437E+00   -3.0188687205E+00   -3.0075195758E+00   -2.9962554437E+00
-2.9850753725E+00   -2.9739784247E+00   -2.9629636767E+00   -2.9520302186E+00
-2.9411771538E+00   -2.9304035988E+00   -2.9197086831E+00   -2.9090915488E+00
-2.8985513505E+00   -2.8880872549E+00   -2.8776984407E+00   -2.8673840986E+00
-2.8571434305E+00   -2.8469756499E+00   -2.8368799815E+00   -2.8268556607E+00
-2.8169019340E+00   -2.8070180581E+00   -2.7972033005E+00   -2.7874569386E+00
-2.7777782599E+00   -2.7681665619E+00   -2.7586211517E+00   -2.7491413458E+00
-2.7397264703E+00   -2.7303758604E+00   -2.7210888602E+00   -2.7118648229E+00
-2.7027031104E+00   -2.6936030931E+00   -2.6845641499E+00   -2.6755856681E+00
-2.6666670429E+00   -2.6578076779E+00   -2.6490069844E+00   -2.6402643814E+00
-2.6315792957E+00   -2.6229511615E+00   -2.6143794206E+00   -2.6058635217E+00
-2.5974029211E+00   -2.5889970818E+00   -2.5806454738E+00   -2.5723475741E+00
-2.5641028662E+00   -2.5559108403E+00   -2.5477709930E+00   -2.5396828275E+00
-2.5316458530E+00   -2.5236595851E+00   -2.5157235454E+00   -2.5078372616E+00
-2.5000002672E+00   -2.4922121015E+00   -2.4844723096E+00   -2.4767804423E+00
-2.4691360558E+00   -2.4615387117E+00   -2.4539879772E+00   -2.4464834247E+00
-2.4390246318E+00   -2.4316111811E+00   -2.4242426606E+00   -2.4169186629E+00
-2.4096387858E+00   -2.4024026318E+00   -2.3952098081E+00   -2.3880599267E+00
-2.3809526042E+00   -2.3738874618E+00   -2.3668641250E+00   -2.3598822239E+00
-2.3529413928E+00   -2.3460412706E+00   -2.3391814999E+00   -2.3323617280E+00
-2.3255816060E+00   -2.3188407891E+00   -2.3121389365E+00   -2.3054757114E+00
-2.2988507807E+00   -2.2922638152E+00   -2.2857144896E+00   -2.2792024821E+00
-2.2727274748E+00   -2.2662891530E+00   -2.2598872060E+00   -2.2535213263E+00
-2.2471912100E+00   -2.2408965566E+00   -2.2346370688E+00   -2.2284124529E+00
-2.2222224182E+00   -2.2160666773E+00   -2.2099449461E+00   -2.2038569434E+00
-2.1978023913E+00   -2.1917810148E+00   -2.1857925421E+00   -2.1798367041E+00
-2.1739132347E+00   -2.1680218709E+00   -2.1621623523E+00   -2.1563344214E+00
-2.1505378235E+00   -2.1447723065E+00   -2.1390376212E+00   -2.1333335209E+00
-2.1276597615E+00   -2.1220161016E+00   -2.1164023023E+00   -2.1108181273E+00
-2.1052633427E+00   -2.0997377171E+00   -2.0942410214E+00   -2.0887730291E+00
-2.0833335159E+00   -2.0779222599E+00   -2.0725390414E+00   -2.0671836433E+00
-2.0618558502E+00   -2.0565554494E+00   -2.0512822301E+00   -2.0460359838E+00
-2.0408165040E+00   -2.0356235864E+00   -2.0304570288E+00   -2.0253166310E+00
-2.0202021948E+00   -2.0151135240E+00   -2.0100504243E+00   -2.0050127036E+00
-2.0000001715E+00   -1.9950126395E+00   -1.9900499211E+00   -1.9851118316E+00
-1.9801981880E+00   -1.9753088093E+00   -1.9704435162E+00   -1.9656021312E+00
-1.9607844784E+00   -1.9559903838E+00   -1.9512196750E+00   -1.9464721813E+00
-1.9417477337E+00   -1.9370461647E+00   -1.9323673087E+00   -1.9277110013E+00
-1.9230770800E+00   -1.9184653837E+00   -1.9138757530E+00   -1.9093080297E+00
-1.9047620575E+00   -1.9002376814E+00   -1.8957347478E+00   -1.8912531046E+00
-1.8867926013E+00   -1.8823530886E+00   -1.8779344186E+00   -1.8735364449E+00
-1.8691590226E+00   -1.8648020077E+00   -1.8604652581E+00   -1.8561486325E+00
-1.8518519914E+00   -1.8475751961E+00   -1.8433181096E+00   -1.8390805958E+00
-1.8348625202E+00   -1.8306637493E+00   -1.8264841509E+00   -1.8223235939E+00
-1.8181819485E+00   -1.8140590860E+00   -1.8099548791E+00   -1.8058692013E+00
-1.8018019274E+00   -1.7977529334E+00   -1.7937220964E+00   -1.7897092944E+00
-1.7857144067E+00   -1.7817373136E+00   -1.7777778964E+00   -1.7738360377E+00
-1.7699116208E+00   -1.7660045302E+00   -1.7621146515E+00   -1.7582418711E+00
-1.7543860767E+00   -1.7505471566E+00   -1.7467250003E+00   -1.7429194984E+00
-1.7391305421E+00   -1.7353580238E+00   -1.7316018367E+00   -1.7278618751E+00
-1.7241380339E+00   -1.7204302094E+00   -1.7167382982E+00   -1.7130621982E+00
-1.7094018081E+00   -1.7057570272E+00   -1.7021277561E+00   -1.6985138960E+00
-1.6949153488E+00   -1.6913320174E+00   -1.6877638056E+00   -1.6842106178E+00
-1.6806723595E+00   -1.6771489365E+00   -1.6736402560E+00   -1.6701462255E+00
-1.6666667534E+00   -1.6632017490E+00   -1.6597511222E+00   -1.6563147838E+00
-1.6528926451E+00   -1.6494846183E+00   -1.6460906163E+00   -1.6427105528E+00
-1.6393443419E+00   -1.6359918988E+00   -1.6326531392E+00   -1.6293279794E+00
-1.6260163365E+00   -1.6227181283E+00   -1.6194332732E+00   -1.6161616902E+00
-1.6129032991E+00   -1.6096580202E+00   -1.6064257746E+00   -1.6032064839E+00
-1.6000000704E+00   -1.5968064569E+00   -1.5936255670E+00   -1.5904573248E+00
-1.5873016550E+00   -1.5841584829E+00   -1.5810277344E+00   -1.5779093360E+00
-1.5748032148E+00   -1.5717092984E+00   -1.5686275150E+00   -1.5655577934E+00
-1.5625000629E+00   -1.5594542534E+00   -1.5564202952E+00   -1.5533981195E+00
-1.5503876576E+00   -1.5473888417E+00   -1.5444016041E+00   -1.5414258781E+00
-1.5384615972E+00   -1.5355086956E+00   -1.5325671077E+00   -1.5296367688E+00
-1.5267176145E+00   -1.5238095807E+00   -1.5209126041E+00   -1.5180266216E+00
-1.5151515708E+00   -1.5122873897E+00   -1.5094340167E+00   -1.5065913909E+00
-1.5037594516E+00   -1.5009381389E+00   -1.4981273929E+00   -1.4953271547E+00
-1.4925373654E+00   -1.4897579665E+00   -1.4869889001E+00   -1.4842301085E+00
-1.4814815346E+00   -1.4787431217E+00   -1.4760148133E+00   -1.4732965537E+00
-1.4705882876E+00   -1.4678899600E+00   -1.4652015164E+00   -1.4625229025E+00
-1.4598540646E+00   -1.4571949496E+00   -1.4545455041E+00   -1.4519056755E+00
-1.4492754117E+00   -1.4466546605E+00   -1.4440433706E+00   -1.4414414908E+00
-1.4388489701E+00   -1.4362657583E+00   -1.4336918054E+00   -1.4311270615E+00
-1.4285714775E+00   -1.4260250043E+00   -1.4234875933E+00   -1.4209591962E+00
-1.4184397650E+00   -1.4159292522E+00   -1.4134276105E+00   -1.4109347930E+00
-1.4084507529E+00   -1.4059754441E+00   -1.4035088206E+00   -1.4010508368E+00
-1.3986014473E+00   -1.3961606072E+00   -1.3937282718E+00   -1.3913043967E+00
-1.3888889378E+00   -1.3864818514E+00   -1.3840830940E+00   -1.3816926225E+00
-1.3793103940E+00   -1.3769363659E+00   -1.3745704961E+00   -1.3722127424E+00
-1.3698630632E+00   -1.3675214171E+00   -1.3651877630E+00   -1.3628620600E+00
-1.3605442676E+00   -1.3582343455E+00   -1.3559322536E+00   -1.3536379522E+00
-1.3513514018E+00   -1.3490725632E+00   -1.3468013975E+00   -1.3445378660E+00
-1.3422819302E+00   -1.3400335520E+00   -1.3377926935E+00   -1.3355593169E+00
</PP_LOCAL>
<PP_NONLOCAL>
<PP_BETA.1
type="real"
size="600"
columns="4"
index="1"
angular_momentum="0"
cutoff_radius_index=" 140"
cutoff_radius="    1.3900000000E+00" >
-8.4809193002E-10    9.9362217779E-02    1.9838228150E-01    2.9671987445E-01
3.9403833818E-01    4.9000646059E-01    5.8430021553E-01    6.7660443861E-01
7.6661442495E-01    8.5403743556E-01    9.3859410028E-01    1.0200197065E+00
1.0980653646E+00    1.1724990420E+00    1.2431064606E+00    1.3096918523E+00
1.3720785720E+00    1.4301095642E+00    1.4836476883E+00    1.5325759014E+00
1.5767973061E+00    1.6162350667E+00    1.6508322027E+00    1.6805512674E+00
1.7053739206E+00    1.7253004071E+00    1.7403489513E+00    1.7505550789E+00
1.7559708797E+00    1.7566642208E+00    1.7527179249E+00    1.7442289230E+00
1.7313073939E+00    1.7140759008E+00    1.6926685336E+00    1.6672300676E+00
1.6379151430E+00    1.6048874741E+00    1.5683190924E+00    1.5283896257E+00
1.4852856176E+00    1.4391998862E+00    1.3903309234E+00    1.3388823306E+00
1.2850622900E+00    1.2290830651E+00    1.1711605271E+00    1.1115137002E+00
1.0503643186E+00    9.8793638886E-01    9.2445575005E-01    8.6014962315E-01
7.9524614310E-01    7.2997386587E-01    6.6456124381E-01    5.9923606333E-01
5.3422483975E-01    4.6975216518E-01    4.0604000654E-01    3.4330695207E-01
2.8176740626E-01    2.2163073436E-01    1.6310035946E-01    1.0637281643E-01
5.1636768779E-02   -9.2800427237E-04   -5.1151641546E-02   -9.8875244384E-02
-1.4395192053E-01   -1.8624781506E-01   -2.2564311530E-01   -2.6203301585E-01
-2.9532862972E-01   -3.2545783129E-01   -3.5236601684E-01   -3.7601676910E-01
-3.9639241241E-01   -4.1349444654E-01   -4.2734384787E-01   -4.3798122830E-01
-4.4546684372E-01   -4.4988044583E-01   -4.5132097273E-01   -4.4990607635E-01
-4.4577148634E-01   -4.3907021309E-01   -4.2997159408E-01   -4.1866019100E-01
-4.0533454648E-01   -3.9020581233E-01   -3.7349626266E-01   -3.5543770772E-01
-3.3626982573E-01   -3.1623843378E-01   -2.9559370935E-01   -2.7458838120E-01
-2.5347600886E-01   -2.3250838993E-01   -2.1192911252E-01   -1.9196309829E-01
-1.7280898605E-01   -1.5463209460E-01   -1.3755764100E-01   -1.2166538068E-01
-1.0698659078E-01   -9.3504387612E-02   -8.1158183244E-02   -6.9852581056E-02
-5.9470287266E-02   -4.9887739861E-02   -4.0991445671E-02   -3.2692400565E-02
-2.4936170190E-02   -1.7706994054E-02   -1.1025318420E-02   -4.9395141830E-03
4.8614173319E-04    5.1849734390E-03    9.1004925543E-03    1.2196196855E-02
1.4461815994E-02    1.5915798864E-02    1.6604445378E-02    1.6598688714E-02
1.5989266609E-02    1.4881213592E-02    1.3388278483E-02    1.1627658404E-02
9.7153793608E-03    7.7623713784E-03    5.8712643837E-03    4.1340583966E-03
2.6303345954E-03    1.4172325750E-03    5.6263889539E-04    1.1298419925E-04
-2.6597541415E-05   -1.2133092931E-05    8.9491191825E-06   -1.4942524199E-07
0. 0. 0. 0.
0. 0. 0. 0.
0. 0. 0. 0.
0. 0. 0. 0.
0. 0. 0. 0.
0. 0. 0. 0.
0. 0. 0. 0.
0. 0. 0. 0.
0. 0. 0. 0.
0. 0. 0. 0.
0. 0. 0. 0.
0. 0. 0. 0.
0. 0. 0. 0.
0. 0. 0. 0.
0. 0. 0. 0.
0. 0. 0. 0.
0. 0. 0. 0.
0. 0. 0. 0.
0. 0. 0. 0.
0. 0. 0. 0.
0. 0. 0. 0.
0. 0. 0. 0.
0. 0. 0. 0.
0. 0. 0. 0.
0. 0. 0. 0.
0. 0. 0. 0.
0. 0. 0. 0.
0. 0. 0. 0.
0. 0. 0. 0.
0. 0. 0. 0.
0. 0. 0. 0.
0. 0. 0. 0.
0. 0. 0. 0.
0. 0. 0. 0.
0. 0. 0. 0.
0. 0. 0. 0.
0. 0. 0. 0.
0. 0. 0. 0.
0. 0. 0. 0.
0. 0. 0. 0.
0. 0. 0. 0.
0. 0. 0. 0.
0. 0. 0. 0.
0. 0. 0. 0.
0. 0. 0. 0.
0. 0. 0. 0.
0. 0. 0. 0.
0. 0. 0. 0.
0. 0. 0. 0.
0. 0. 0. 0.
0. 0. 0. 0.
0. 0. 0. 0.
0. 0. 0. 0.
0. 0. 0. 0.
0. 0. 0. 0.
0. 0. 0. 0.
0. 0. 0. 0.
0. 0. 0. 0.
0. 0. 0. 0.
0. 0. 0. 0.
0. 0. 0. 0.
0. 0. 0. 0.
0. 0. 0. 0.
0. 0. 0. 0.
0. 0. 0. 0.
0. 0. 0. 0.
0. 0. 0. 0.
0. 0. 0. 0.
0. 0. 0. 0.
0. 0. 0. 0.
0. 0. 0. 0.
0. 0. 0. 0.
0. 0. 0. 0.
0. 0. 0. 0.
0. 0. 0. 0.
0. 0. 0. 0.
0. 0. 0. 0.
0. 0. 0. 0.
0. 0. 0. 0.
0. 0. 0. 0.
0. 0. 0. 0.
0. 0. 0. 0.
0. 0. 0. 0.
0. 0. 0. 0.
0. 0. 0. 0.
0. 0. 0. 0.
0. 0. 0. 0.
0. 0. 0. 0.
0. 0. 0. 0.
0. 0. 0. 0.
0. 0. 0. 0.
0. 0. 0. 0.
0. 0. 0. 0.
0. 0. 0. 0.
0. 0. 0. 0.
0. 0. 0. 0.
0. 0. 0. 0.
0. 0. 0. 0.
0. 0. 0. 0.
0. 0. 0. 0.
0. 0. 0. 0.
0. 0. 0. 0.
0. 0. 0. 0.
0. 0. 0. 0.
0. 0. 0. 0.
0. 0. 0. 0.
0. 0. 0. 0.
0. 0. 0. 0.
0. 0. 0. 0.
0. 0. 0. 0.
0. 0. 0. 0.
0. 0. 0. 0.
0. 0. 0. 0.
0. 0. 0. 0.
0. 0. 0. 0.
</PP_BETA.1>
<PP_BETA.2
type="real"
size="600"
columns="4"
index="2"
angular_momentum="0"
cutoff_radius_index=" 140"
cutoff_radius="    1.3900000000E+00" >