<UPF version="2.0.1">
<PP_INFO>
NOTE!!!!
This file is trimmed with a mesh size of 600 from the original version.
Trimming performed at 2023-03-31 09:10:05.071374 by trim_upf.py version 0.1.0

This pseudopotential file has been produced using the code
ONCVPSP  (Optimized Norm-Conservinng Vanderbilt PSeudopotential)
scalar-relativistic version 3.3.0 08/16/2017 by D. R. Hamann
The code is available through a link at URL www.mat-simresearch.com.
Documentation with the package provides a full discription of the
input data below.
While it is not required under the terms of the GNU GPL, it is
suggested that you cite D. R. Hamann, Phys. Rev. B 88, 085117 (2013)
in any publication using these pseudopotentials.
<PP_INPUTFILE>
# ATOM AND REFERENCE CONFIGURATION
# atsym  z   nc   nv     iexc    psfile
Br 35.00    6    2       4      upf
#
#   n    l    f        energy (Ha)
1    0    2.00
2    0    2.00
2    1    6.00
3    0    2.00
3    1    6.00
3    2   10.00
4    0    2.00
4    1    5.00
#
# PSEUDOPOTENTIAL AND OPTIMIZATION
# lmax
2
#
#   l,   rc,      ep,       ncon, nbas, qcut
0   1.80000  -0.73993    4    9   5.90000
1   1.50000  -0.28884    4    8   7.40000
2   1.90000   0.10000    4    9   7.40000
#
# LOCAL POTENTIAL
# lloc, lpopt,  rc(5),   dvloc0
4    5   1.50000      0.00000
#
# VANDERBILT-KLEINMAN-BYLANDER PROJECTORs
# l, nproj, debl
0    2   3.20000
1    2   4.00000
2    2   2.50000
#
# MODEL CORE CHARGE
# icmod, fcfact, rcfact
3   8.00000   1.21000
#
# LOG DERIVATIVE ANALYSIS
# epsh1, epsh2, depsh
-12.00   12.00    0.02
#
# OUTPUT GRID
# rlmax, drl
6.00    0.01
#
# TEST CONFIGURATIONS
# ncnf
0
# nvcnf
#   n    l    f
</PP_INPUTFILE>
</PP_INFO>
<!--                               -->
<!-- END OF HUMAN READABLE SECTION -->
<!--                               -->
<PP_HEADER
generated="Generated using ONCVPSP code by D. R. Hamann"
author="anonymous"
date="171031"
comment=""
element="Br"
pseudo_type="NC"
relativistic="scalar"
is_ultrasoft="F"
is_paw="F"
is_coulomb="F"
has_so="F"
has_wfc="F"
has_gipaw="F"
core_correction="T"
functional="PBE"
z_valence="    7.00"
total_psenergy="  -2.69482409397E+01"
rho_cutoff="   1.09700000000E+01"
l_max="2"
l_local="-1"
mesh_size="   600"
number_of_wfc="2"
number_of_proj="6"/>
<PP_MESH>
<PP_R type="real"  size="600" columns="8">
0.0000    0.0100    0.0200    0.0300    0.0400    0.0500    0.0600    0.0700
0.0800    0.0900    0.1000    0.1100    0.1200    0.1300    0.1400    0.1500
0.1600    0.1700    0.1800    0.1900    0.2000    0.2100    0.2200    0.2300
0.2400    0.2500    0.2600    0.2700    0.2800    0.2900    0.3000    0.3100
0.3200    0.3300    0.3400    0.3500    0.3600    0.3700    0.3800    0.3900
0.4000    0.4100    0.4200    0.4300    0.4400    0.4500    0.4600    0.4700
0.4800    0.4900    0.5000    0.5100    0.5200    0.5300    0.5400    0.5500
0.5600    0.5700    0.5800    0.5900    0.6000    0.6100    0.6200    0.6300
0.6400    0.6500    0.6600    0.6700    0.6800    0.6900    0.7000    0.7100
0.7200    0.7300    0.7400    0.7500    0.7600    0.7700    0.7800    0.7900
0.8000    0.8100    0.8200    0.8300    0.8400    0.8500    0.8600    0.8700
0.8800    0.8900    0.9000    0.9100    0.9200    0.9300    0.9400    0.9500
0.9600    0.9700    0.9800    0.9900    1.0000    1.0100    1.0200    1.0300
1.0400    1.0500    1.0600    1.0700    1.0800    1.0900    1.1000    1.1100
1.1200    1.1300    1.1400    1.1500    1.1600    1.1700    1.1800    1.1900
1.2000    1.2100    1.2200    1.2300    1.2400    1.2500    1.2600    1.2700
1.2800    1.2900    1.3000    1.3100    1.3200    1.3300    1.3400    1.3500
1.3600    1.3700    1.3800    1.3900    1.4000    1.4100    1.4200    1.4300
1.4400    1.4500    1.4600    1.4700    1.4800    1.4900    1.5000    1.5100
1.5200    1.5300    1.5400    1.5500    1.5600    1.5700    1.5800    1.5900
1.6000    1.6100    1.6200    1.6300    1.6400    1.6500    1.6600    1.6700
1.6800    1.6900    1.7000    1.7100    1.7200    1.7300    1.7400    1.7500
1.7600    1.7700    1.7800    1.7900    1.8000    1.8100    1.8200    1.8300
1.8400    1.8500    1.8600    1.8700    1.8800    1.8900    1.9000    1.9100
1.9200    1.9300    1.9400    1.9500    1.9600    1.9700    1.9800    1.9900
2.0000    2.0100    2.0200    2.0300    2.0400    2.0500    2.0600    2.0700
2.0800    2.0900    2.1000    2.1100    2.1200    2.1300    2.1400    2.1500
2.1600    2.1700    2.1800    2.1900    2.2000    2.2100    2.2200    2.2300
2.2400    2.2500    2.2600    2.2700    2.2800    2.2900    2.3000    2.3100
2.3200    2.3300    2.3400    2.3500    2.3600    2.3700    2.3800    2.3900
2.4000    2.4100    2.4200    2.4300    2.4400    2.4500    2.4600    2.4700
2.4800    2.4900    2.5000    2.5100    2.5200    2.5300    2.5400    2.5500
2.5600    2.5700    2.5800    2.5900    2.6000    2.6100    2.6200    2.6300
2.6400    2.6500    2.6600    2.6700    2.6800    2.6900    2.7000    2.7100
2.7200    2.7300    2.7400    2.7500    2.7600    2.7700    2.7800    2.7900
2.8000    2.8100    2.8200    2.8300    2.8400    2.8500    2.8600    2.8700
2.8800    2.8900    2.9000    2.9100    2.9200    2.9300    2.9400    2.9500
2.9600    2.9700    2.9800    2.9900    3.0000    3.0100    3.0200    3.0300
3.0400    3.0500    3.0600    3.0700    3.0800    3.0900    3.1000    3.1100
3.1200    3.1300    3.1400    3.1500    3.1600    3.1700    3.1800    3.1900
3.2000    3.2100    3.2200    3.2300    3.2400    3.2500    3.2600    3.2700
3.2800    3.2900    3.3000    3.3100    3.3200    3.3300    3.3400    3.3500
3.3600    3.3700    3.3800    3.3900    3.4000    3.4100    3.4200    3.4300
3.4400    3.4500    3.4600    3.4700    3.4800    3.4900    3.5000    3.5100
3.5200    3.5300    3.5400    3.5500    3.5600    3.5700    3.5800    3.5900
3.6000    3.6100    3.6200    3.6300    3.6400    3.6500    3.6600    3.6700
3.6800    3.6900    3.7000    3.7100    3.7200    3.7300    3.7400    3.7500
3.7600    3.7700    3.7800    3.7900    3.8000    3.8100    3.8200    3.8300
3.8400    3.8500    3.8600    3.8700    3.8800    3.8900    3.9000    3.9100
3.9200    3.9300    3.9400    3.9500    3.9600    3.9700    3.9800    3.9900
4.0000    4.0100    4.0200    4.0300    4.0400    4.0500    4.0600    4.0700
4.0800    4.0900    4.1000    4.1100    4.1200    4.1300    4.1400    4.1500
4.1600    4.1700    4.1800    4.1900    4.2000    4.2100    4.2200    4.2300
4.2400    4.2500    4.2600    4.2700    4.2800    4.2900    4.3000    4.3100
4.3200    4.3300    4.3400    4.3500    4.3600    4.3700    4.3800    4.3900
4.4000    4.4100    4.4200    4.4300    4.4400    4.4500    4.4600    4.4700
4.4800    4.4900    4.5000    4.5100    4.5200    4.5300    4.5400    4.5500
4.5600    4.5700    4.5800    4.5900    4.6000    4.6100    4.6200    4.6300
4.6400    4.6500    4.6600    4.6700    4.6800    4.6900    4.7000    4.7100
4.7200    4.7300    4.7400    4.7500    4.7600    4.7700    4.7800    4.7900
4.8000    4.8100    4.8200    4.8300    4.8400    4.8500    4.8600    4.8700
4.8800    4.8900    4.9000    4.9100    4.9200    4.9300    4.9400    4.9500
4.9600    4.9700    4.9800    4.9900    5.0000    5.0100    5.0200    5.0300
5.0400    5.0500    5.0600    5.0700    5.0800    5.0900    5.1000    5.1100
5.1200    5.1300    5.1400    5.1500    5.1600    5.1700    5.1800    5.1900
5.2000    5.2100    5.2200    5.2300    5.2400    5.2500    5.2600    5.2700
5.2800    5.2900    5.3000    5.3100    5.3200    5.3300    5.3400    5.3500
5.3600    5.3700    5.3800    5.3900    5.4000    5.4100    5.4200    5.4300
5.4400    5.4500    5.4600    5.4700    5.4800    5.4900    5.5000    5.5100
5.5200    5.5300    5.5400    5.5500    5.5600    5.5700    5.5800    5.5900
5.6000    5.6100    5.6200    5.6300    5.6400    5.6500    5.6600    5.6700
5.6800    5.6900    5.7000    5.7100    5.7200    5.7300    5.7400    5.7500
5.7600    5.7700    5.7800    5.7900    5.8000    5.8100    5.8200    5.8300
5.8400    5.8500    5.8600    5.8700    5.8800    5.8900    5.9000    5.9100
5.9200    5.9300    5.9400    5.9500    5.9600    5.9700    5.9800    5.9900
</PP_R>
<PP_RAB type="real"  size="600" columns="8">
0.0100    0.0100    0.0100    0.0100    0.0100    0.0100    0.0100    0.0100
0.0100    0.0100    0.0100    0.0100    0.0100    0.0100    0.0100    0.0100
0.0100    0.0100    0.0100    0.0100    0.0100    0.0100    0.0100    0.0100
0.0100    0.0100    0.0100    0.0100    0.0100    0.0100    0.0100    0.0100
0.0100    0.0100    0.0100    0.0100    0.0100    0.0100    0.0100    0.0100
0.0100    0.0100    0.0100    0.0100    0.0100    0.0100    0.0100    0.0100
0.0100    0.0100    0.0100    0.0100    0.0100    0.0100    0.0100    0.0100
0.0100    0.0100    0.0100    0.0100    0.0100    0.0100    0.0100    0.0100
0.0100    0.0100    0.0100    0.0100    0.0100    0.0100    0.0100    0.0100
0.0100    0.0100    0.0100    0.0100    0.0100    0.0100    0.0100    0.0100
0.0100    0.0100    0.0100    0.0100    0.0100    0.0100    0.0100    0.0100
0.0100    0.0100    0.0100    0.0100    0.0100    0.0100    0.0100    0.0100
0.0100    0.0100    0.0100    0.0100    0.0100    0.0100    0.0100    0.0100
0.0100    0.0100    0.0100    0.0100    0.0100    0.0100    0.0100    0.0100
0.0100    0.0100    0.0100    0.0100    0.0100    0.0100    0.0100    0.0100
0.0100    0.0100    0.0100    0.0100    0.0100    0.0100    0.0100    0.0100
0.0100    0.0100    0.0100    0.0100    0.0100    0.0100    0.0100    0.0100
0.0100    0.0100    0.0100    0.0100    0.0100    0.0100    0.0100    0.0100
0.0100    0.0100    0.0100    0.0100    0.0100    0.0100    0.0100    0.0100
0.0100    0.0100    0.0100    0.0100    0.0100    0.0100    0.0100    0.0100
0.0100    0.0100    0.0100    0.0100    0.0100    0.0100    0.0100    0.0100
0.0100    0.0100    0.0100    0.0100    0.0100    0.0100    0.0100    0.0100
0.0100    0.0100    0.0100    0.0100    0.0100    0.0100    0.0100    0.0100
0.0100    0.0100    0.0100    0.0100    0.0100    0.0100    0.0100    0.0100
0.0100    0.0100    0.0100    0.0100    0.0100    0.0100    0.0100    0.0100
0.0100    0.0100    0.0100    0.0100    0.0100    0.0100    0.0100    0.0100
0.0100    0.0100    0.0100    0.0100    0.0100    0.0100    0.0100    0.0100
0.0100    0.0100    0.0100    0.0100    0.0100    0.0100    0.0100    0.0100
0.0100    0.0100    0.0100    0.0100    0.0100    0.0100    0.0100    0.0100
0.0100    0.0100    0.0100    0.0100    0.0100    0.0100    0.0100    0.0100
0.0100    0.0100    0.0100    0.0100    0.0100    0.0100    0.0100    0.0100
0.0100    0.0100    0.0100    0.0100    0.0100    0.0100    0.0100    0.0100
0.0100    0.0100    0.0100    0.0100    0.0100    0.0100    0.0100    0.0100
0.0100    0.0100    0.0100    0.0100    0.0100    0.0100    0.0100    0.0100
0.0100    0.0100    0.0100    0.0100    0.0100    0.0100    0.0100    0.0100
0.0100    0.0100    0.0100    0.0100    0.0100    0.0100    0.0100    0.0100
0.0100    0.0100    0.0100    0.0100    0.0100    0.0100    0.0100    0.0100
0.0100    0.0100    0.0100    0.0100    0.0100    0.0100    0.0100    0.0100
0.0100    0.0100    0.0100    0.0100    0.0100    0.0100    0.0100    0.0100
0.0100    0.0100    0.0100    0.0100    0.0100    0.0100    0.0100    0.0100
0.0100    0.0100    0.0100    0.0100    0.0100    0.0100    0.0100    0.0100
0.0100    0.0100    0.0100    0.0100    0.0100    0.0100    0.0100    0.0100
0.0100    0.0100    0.0100    0.0100    0.0100    0.0100    0.0100    0.0100
0.0100    0.0100    0.0100    0.0100    0.0100    0.0100    0.0100    0.0100
0.0100    0.0100    0.0100    0.0100    0.0100    0.0100    0.0100    0.0100
0.0100    0.0100    0.0100    0.0100    0.0100    0.0100    0.0100    0.0100
0.0100    0.0100    0.0100    0.0100    0.0100    0.0100    0.0100    0.0100
0.0100    0.0100    0.0100    0.0100    0.0100    0.0100    0.0100    0.0100
0.0100    0.0100    0.0100    0.0100    0.0100    0.0100    0.0100    0.0100
0.0100    0.0100    0.0100    0.0100    0.0100    0.0100    0.0100    0.0100
0.0100    0.0100    0.0100    0.0100    0.0100    0.0100    0.0100    0.0100
0.0100    0.0100    0.0100    0.0100    0.0100    0.0100    0.0100    0.0100
0.0100    0.0100    0.0100    0.0100    0.0100    0.0100    0.0100    0.0100
0.0100    0.0100    0.0100    0.0100    0.0100    0.0100    0.0100    0.0100
0.0100    0.0100    0.0100    0.0100    0.0100    0.0100    0.0100    0.0100
0.0100    0.0100    0.0100    0.0100    0.0100    0.0100    0.0100    0.0100
0.0100    0.0100    0.0100    0.0100    0.0100    0.0100    0.0100    0.0100
0.0100    0.0100    0.0100    0.0100    0.0100    0.0100    0.0100    0.0100
0.0100    0.0100    0.0100    0.0100    0.0100    0.0100    0.0100    0.0100
0.0100    0.0100    0.0100    0.0100    0.0100    0.0100    0.0100    0.0100
0.0100    0.0100    0.0100    0.0100    0.0100    0.0100    0.0100    0.0100
0.0100    0.0100    0.0100    0.0100    0.0100    0.0100    0.0100    0.0100
0.0100    0.0100    0.0100    0.0100    0.0100    0.0100    0.0100    0.0100
0.0100    0.0100    0.0100    0.0100    0.0100    0.0100    0.0100    0.0100
0.0100    0.0100    0.0100    0.0100    0.0100    0.0100    0.0100    0.0100
0.0100    0.0100    0.0100    0.0100    0.0100    0.0100    0.0100    0.0100
0.0100    0.0100    0.0100    0.0100    0.0100    0.0100    0.0100    0.0100
0.0100    0.0100    0.0100    0.0100    0.0100    0.0100    0.0100    0.0100
0.0100    0.0100    0.0100    0.0100    0.0100    0.0100    0.0100    0.0100
0.0100    0.0100    0.0100    0.0100    0.0100    0.0100    0.0100    0.0100
0.0100    0.0100    0.0100    0.0100    0.0100    0.0100    0.0100    0.0100
0.0100    0.0100    0.0100    0.0100    0.0100    0.0100    0.0100    0.0100
0.0100    0.0100    0.0100    0.0100    0.0100    0.0100    0.0100    0.0100
0.0100    0.0100    0.0100    0.0100    0.0100    0.0100    0.0100    0.0100
0.0100    0.0100    0.0100    0.0100    0.0100    0.0100    0.0100    0.0100
</PP_RAB>
</PP_MESH>
<PP_LOCAL type="real"  size="600" columns="4">
-1.9578264792E+01   -1.9577453080E+01   -1.9575018253E+01   -1.9570961253E+01
-1.9565283648E+01   -1.9557987628E+01   -1.9549076005E+01   -1.9538552205E+01
-1.9526420266E+01   -1.9512684828E+01   -1.9497351131E+01   -1.9480425003E+01
-1.9461912856E+01   -1.9441821671E+01   -1.9420158995E+01   -1.9396932927E+01
-1.9372152108E+01   -1.9345825711E+01   -1.9317963427E+01   -1.9288575460E+01
-1.9257672506E+01   -1.9225265749E+01   -1.9191366846E+01   -1.9155987912E+01
-1.9119141512E+01   -1.9080840649E+01   -1.9041098746E+01   -1.8999929640E+01
-1.8957347566E+01   -1.8913367147E+01   -1.8868003378E+01   -1.8821271617E+01
-1.8773187572E+01   -1.8723767287E+01   -1.8673027129E+01   -1.8620983777E+01
-1.8567654209E+01   -1.8513055687E+01   -1.8457205746E+01   -1.8400122180E+01
-1.8341823027E+01   -1.8282326557E+01   -1.8221651260E+01   -1.8159815830E+01
-1.8096839150E+01   -1.8032740283E+01   -1.7967538455E+01   -1.7901253041E+01
-1.7833903556E+01   -1.7765509640E+01   -1.7696091046E+01   -1.7625667627E+01
-1.7554259330E+01   -1.7481886182E+01   -1.7408568283E+01   -1.7334325796E+01
-1.7259178944E+01   -1.7183148003E+01   -1.7106253298E+01   -1.7028515199E+01
-1.6949954125E+01   -1.6870590540E+01   -1.6790444955E+01   -1.6709537939E+01
-1.6627890115E+01   -1.6545522174E+01   -1.6462454882E+01   -1.6378709087E+01
-1.6294305736E+01   -1.6209265881E+01   -1.6123610698E+01   -1.6037361497E+01
-1.5950539739E+01   -1.5863167049E+01   -1.5775265232E+01   -1.5686856287E+01
-1.5597962421E+01   -1.5508606063E+01   -1.5418809872E+01   -1.5328596754E+01
-1.5237989865E+01   -1.5147012621E+01   -1.5055688702E+01   -1.4964042050E+01
-1.4872096878E+01   -1.4779877658E+01   -1.4687409118E+01   -1.4594716234E+01
-1.4501824219E+01   -1.4408758504E+01   -1.4315544726E+01   -1.4222208704E+01
-1.4128776418E+01   -1.4035273981E+01   -1.3941727616E+01   -1.3848163627E+01
-1.3754608362E+01   -1.3661088191E+01   -1.3567629464E+01   -1.3474258489E+01
-1.3381001487E+01   -1.3287884570E+01   -1.3194933704E+01   -1.3102174680E+01
-1.3009633085E+01   -1.2917334273E+01   -1.2825303342E+01   -1.2733565109E+01
-1.2642144088E+01   -1.2551064472E+01   -1.2460350120E+01   -1.2370024537E+01
-1.2280110866E+01   -1.2190631876E+01   -1.2101609956E+01   -1.2013067110E+01
-1.1925024946E+01   -1.1837504677E+01   -1.1750527117E+01   -1.1664112673E+01
-1.1578281343E+01   -1.1493052713E+01   -1.1408445944E+01   -1.1324479770E+01
-1.1241172482E+01   -1.1158541917E+01   -1.1076605437E+01   -1.0995379915E+01
-1.0914881706E+01   -1.0835126618E+01   -1.0756129884E+01   -1.0677906123E+01
-1.0600469300E+01   -1.0523832677E+01   -1.0448008771E+01   -1.0373009295E+01
-1.0298845099E+01   -1.0225526116E+01   -1.0153061288E+01   -1.0081458504E+01
-1.0010724525E+01   -9.9408649127E+00   -9.8718839524E+00   -9.8037845725E+00
-9.7365682741E+00   -9.6702350814E+00   -9.6047832666E+00   -9.5402095866E+00
-9.4765091539E+00   -9.4136755228E+00   -9.3517004128E+00   -9.2905667558E+00
-9.2302473491E+00   -9.1707037728E+00   -9.1118947681E+00   -9.0537960934E+00
-8.9963945449E+00   -8.9396808880E+00   -8.8836454985E+00   -8.8282702472E+00
-8.7735377341E+00   -8.7194361581E+00   -8.6659536607E+00   -8.6130772473E+00
-8.5607945893E+00   -8.5090940679E+00   -8.4579644011E+00   -8.4073946665E+00
-8.3573743433E+00   -8.3078933004E+00   -8.2589417891E+00   -8.2105104404E+00
-8.1625902599E+00   -8.1151726164E+00   -8.0682492701E+00   -8.0218123570E+00
-7.9758543157E+00   -7.9303679432E+00   -7.8853463330E+00   -7.8407828100E+00
-7.7966720384E+00   -7.7530107287E+00   -7.7097969076E+00   -7.6670310939E+00
-7.6247136849E+00   -7.5828416959E+00   -7.5414102513E+00   -7.5004136669E+00
-7.4598459754E+00   -7.4197021232E+00   -7.3799786304E+00   -7.3406720699E+00
-7.3017777340E+00   -7.2632908799E+00   -7.2252071972E+00   -7.1875224343E+00
-7.1502322806E+00   -7.1133323692E+00   -7.0768183347E+00   -7.0406858116E+00
-7.0049304160E+00   -6.9695477443E+00   -6.9345333736E+00   -6.8998828596E+00
-6.8655917366E+00   -6.8316555170E+00   -6.7980696915E+00   -6.7648297304E+00
-6.7319310845E+00   -6.6993691867E+00   -6.6671394544E+00   -6.6352372919E+00
-6.6036580931E+00   -6.5723972446E+00   -6.5414501291E+00   -6.5108121295E+00
-6.4804786320E+00   -6.4504450311E+00   -6.4207067330E+00   -6.3912591608E+00
-6.3620977582E+00   -6.3332179947E+00   -6.3046153694E+00   -6.2762854165E+00
-6.2482237090E+00   -6.2204258636E+00   -6.1928875448E+00   -6.1656044694E+00
-6.1385724104E+00   -6.1117872011E+00   -6.0852447385E+00   -6.0589409873E+00
-6.0328719828E+00   -6.0070338341E+00   -5.9814227268E+00   -5.9560349258E+00
-5.9308667771E+00   -5.9059147100E+00   -5.8811752390E+00   -5.8566449644E+00
-5.8323205743E+00   -5.8081988445E+00   -5.7842766395E+00   -5.7605509125E+00
-5.7370187054E+00   -5.7136771480E+00   -5.6905234578E+00   -5.6675549388E+00
-5.6447689803E+00   -5.6221630556E+00   -5.5997347204E+00   -5.5774816105E+00
-5.5554014401E+00   -5.5334919998E+00   -5.5117511534E+00   -5.4901768359E+00
-5.4687670509E+00   -5.4475198670E+00   -5.4264334160E+00   -5.4055058889E+00
-5.3847355331E+00   -5.3641206498E+00   -5.3436595900E+00   -5.3233507519E+00
-5.3031925774E+00   -5.2831835494E+00   -5.2633221882E+00   -5.2436070485E+00
-5.2240367166E+00   -5.2046098075E+00   -5.1853249620E+00   -5.1661808436E+00
-5.1471761366E+00   -5.1283095433E+00   -5.1095797815E+00   -5.0909855825E+00
-5.0725256893E+00   -5.0541988544E+00   -5.0360038382E+00   -5.0179394080E+00
-5.0000043358E+00   -4.9821973979E+00   -4.9645173738E+00   -4.9469630451E+00
-4.9295331955E+00   -4.9122266097E+00   -4.8950420738E+00   -4.8779783747E+00
-4.8610343007E+00   -4.8442086411E+00   -4.8275001872E+00   -4.8109077323E+00
-4.7944300725E+00   -4.7780660076E+00   -4.7618143414E+00   -4.7456738830E+00
-4.7296434477E+00   -4.7137218575E+00   -4.6979079429E+00   -4.6822005432E+00
-4.6665985078E+00   -4.6511006977E+00   -4.6357059855E+00   -4.6204132573E+00
-4.6052214132E+00   -4.5901293682E+00   -4.5751360532E+00   -4.5602404156E+00
-4.5454414198E+00   -4.5307380483E+00   -4.5161293016E+00   -4.5016141990E+00
-4.4871917786E+00   -4.4728610980E+00   -4.4586212337E+00   -4.4444712816E+00
-4.4304103569E+00   -4.4164375937E+00   -4.4025521447E+00   -4.3887531812E+00
-4.3750398924E+00   -4.3614114847E+00   -4.3478671814E+00   -4.3344062221E+00
-4.3210278619E+00   -4.3077313704E+00   -4.2945160314E+00   -4.2813811418E+00
-4.2683260109E+00   -4.2553499594E+00   -4.2424523187E+00   -4.2296324300E+00
-4.2168896436E+00   -4.2042233179E+00   -4.1916328188E+00   -4.1791175188E+00
-4.1666767962E+00   -4.1543100350E+00   -4.1420166234E+00   -4.1297959541E+00
-4.1176474230E+00   -4.1055704296E+00   -4.0935643758E+00   -4.0816286659E+00
-4.0697627066E+00   -4.0579659065E+00   -4.0462376758E+00   -4.0345774266E+00
-4.0229845727E+00   -4.0114585296E+00   -3.9999987149E+00   -3.9886045478E+00
-3.9772754500E+00   -3.9660108454E+00   -3.9548101609E+00   -3.9436728260E+00
-3.9325982740E+00   -3.9215859415E+00   -3.9106352695E+00   -3.8997457035E+00
-3.8889166935E+00   -3.8781476954E+00   -3.8674381701E+00   -3.8567875852E+00
-3.8461954145E+00   -3.8356611386E+00   -3.8251842452E+00   -3.8147642297E+00
-3.8044005950E+00   -3.7940928523E+00   -3.7838405208E+00   -3.7736431279E+00
-3.7635002100E+00   -3.7534113117E+00   -3.7433759866E+00   -3.7333937965E+00
-3.7234643122E+00   -3.7135871129E+00   -3.7037617863E+00   -3.6939879283E+00
-3.6842651428E+00   -3.6745930416E+00   -3.6649712441E+00   -3.6553993769E+00
-3.6458770734E+00   -3.6364039739E+00   -3.6269797245E+00   -3.6176039775E+00
-3.6082763904E+00   -3.5989966267E+00   -3.5897643530E+00   -3.5805792395E+00
-3.5714409611E+00   -3.5623491963E+00   -3.5533035974E+00   -3.5443038882E+00
-3.5353497663E+00   -3.5264409245E+00   -3.5175770901E+00   -3.5087580130E+00
-3.4999831852E+00   -3.4912522333E+00   -3.4825648121E+00   -3.4739204468E+00
-3.4653189224E+00   -3.4567603610E+00   -3.4482447088E+00   -3.4397718969E+00
-3.4313419997E+00   -3.4229546791E+00   -3.4146094366E+00   -3.4063057993E+00
-3.3980432209E+00   -3.3898212595E+00   -3.3816391153E+00   -3.3734960147E+00
-3.3653912778E+00   -3.3573243033E+00   -3.3492940388E+00   -3.3413007359E+00
-3.3333445466E+00   -3.3254255572E+00   -3.3175438833E+00   -3.3097001441E+00
-3.3018938232E+00   -3.2941245256E+00   -3.2863919365E+00   -3.2786957022E+00
-3.2710352356E+00   -3.2634103707E+00   -3.2558209328E+00   -3.2482666782E+00
-3.2407473746E+00   -3.2332628329E+00   -3.2258128100E+00   -3.2183970443E+00
-3.2110153002E+00   -3.2036673436E+00   -3.1963529413E+00   -3.1890718628E+00
-3.1818238827E+00   -3.1746087756E+00   -3.1674263183E+00   -3.1602762898E+00
-3.1531584709E+00   -3.1460726443E+00   -3.1390185949E+00   -3.1319961093E+00
-3.1250049761E+00   -3.1180449858E+00   -3.1111159307E+00   -3.1042176051E+00
-3.0973498048E+00   -3.0905123278E+00   -3.0837049735E+00   -3.0769275434E+00
-3.0701798406E+00   -3.0634616697E+00   -3.0567728375E+00   -3.0501131520E+00
-3.0434824232E+00   -3.0368804625E+00   -3.0303070832E+00   -3.0237621000E+00
-3.0172453292E+00   -3.0107565889E+00   -3.0042956985E+00   -2.9978624791E+00
-2.9914567533E+00   -2.9850783451E+00   -2.9787270803E+00   -2.9724027858E+00
-2.9661052902E+00   -2.9598344236E+00   -2.9535900173E+00   -2.9473719042E+00
-2.9411799186E+00   -2.9350138960E+00   -2.9288736736E+00   -2.9227590898E+00
-2.9166699842E+00   -2.9106061979E+00   -2.9045675733E+00   -2.8985539541E+00
-2.8925651853E+00   -2.8866011132E+00   -2.8806615852E+00   -2.8747464503E+00
-2.8688555583E+00   -2.8629887605E+00   -2.8571459094E+00   -2.8513268587E+00
-2.8455314633E+00   -2.8397595791E+00   -2.8340110633E+00   -2.8282857744E+00
-2.8225835718E+00   -2.8169043161E+00   -2.8112478692E+00   -2.8056140938E+00
-2.8000028539E+00   -2.7944140145E+00   -2.7888474419E+00   -2.7833030030E+00
-2.7777805663E+00   -2.7722800009E+00   -2.7668011773E+00   -2.7613439666E+00
-2.7559082414E+00   -2.7504938748E+00   -2.7451007414E+00   -2.7397287163E+00
-2.7343776760E+00   -2.7290474977E+00   -2.7237380596E+00   -2.7184492409E+00
-2.7131809218E+00   -2.7079329831E+00   -2.7027053070E+00   -2.6974977762E+00
-2.6923102746E+00   -2.6871426868E+00   -2.6819948983E+00   -2.6768667956E+00
-2.6717582659E+00   -2.6666691975E+00   -2.6615994792E+00   -2.6565490010E+00
-2.6515176535E+00   -2.6465053282E+00   -2.6415119175E+00   -2.6365373144E+00
-2.6315814129E+00   -2.6266441078E+00   -2.6217252945E+00   -2.6168248694E+00
-2.6119427296E+00   -2.6070787728E+00   -2.6022328977E+00   -2.5974050037E+00
-2.5925949908E+00   -2.5878027599E+00   -2.5830282125E+00   -2.5782712510E+00
-2.5735317784E+00   -2.5688096983E+00   -2.5641049153E+00   -2.5594173344E+00
-2.5547468616E+00   -2.5500934032E+00   -2.5454568665E+00   -2.5408371594E+00
-2.5362341904E+00   -2.5316478686E+00   -2.5270781040E+00   -2.5225248070E+00
-2.5179878887E+00   -2.5134672610E+00   -2.5089628363E+00   -2.5044745276E+00
-2.5000022486E+00   -2.4955459136E+00   -2.4911054373E+00   -2.4866807354E+00
-2.4822717240E+00   -2.4778783196E+00   -2.4735004396E+00   -2.4691380019E+00
-2.4647909249E+00   -2.4604591275E+00   -2.4561425294E+00   -2.4518410508E+00
-2.4475546123E+00   -2.4432831351E+00   -2.4390265411E+00   -2.4347847527E+00
-2.4305576926E+00   -2.4263452844E+00   -2.4221474520E+00   -2.4179641199E+00
-2.4137952130E+00   -2.4096406568E+00   -2.4055003775E+00   -2.4013743016E+00
-2.3972623560E+00   -2.3931644683E+00   -2.3890805665E+00   -2.3850105792E+00
-2.3809544354E+00   -2.3769120646E+00   -2.3728833966E+00   -2.3688683621E+00
-2.3648668918E+00   -2.3608789172E+00   -2.3569043701E+00   -2.3529431827E+00
-2.3489952880E+00   -2.3450606190E+00   -2.3411391093E+00   -2.3372306932E+00
</PP_LOCAL>
<PP_NONLOCAL>
<PP_BETA.1
type="real"
size="600"
columns="4"
index="1"
angular_momentum="0"
cutoff_radius_index=" 196"
cutoff_radius="    1.9500000000E+00" >
-2.0607865414E-10    3.9351458827E-02    7.8658812252E-02    1.1787823390E-01
1.5696645146E-01    1.9588101388E-01    2.3458054686E-01    2.7302499294E-01
3.1117583294E-01    3.4899628525E-01    3.8645148040E-01    4.2350860807E-01
4.6013703458E-01    4.9630838886E-01    5.3199661575E-01    5.6717799553E-01
6.0183112940E-01    6.3593689077E-01    6.6947834302E-01    7.0244062457E-01
7.3481080276E-01    7.6657769845E-01    7.9773168347E-01    8.2826445393E-01
8.5816878213E-01    8.8743825070E-01    9.1606697259E-01    9.4404930079E-01
9.7137953201E-01    9.9805160854E-01    1.0240588226E+00    1.0493935278E+00
1.0740468617E+00    1.0980084841E+00    1.1212663356E+00    1.1438064189E+00
1.1656126088E+00    1.1866664924E+00    1.2069472439E+00    1.2264315361E+00
1.2450934906E+00    1.2629046702E+00    1.2798341126E+00    1.2958484079E+00
1.3109118199E+00    1.3249864504E+00    1.3380324470E+00    1.3500082516E+00
1.3608708895E+00    1.3705762949E+00    1.3790796723E+00    1.3863358880E+00
1.3922998903E+00    1.3969271529E+00    1.4001741373E+00    1.4019987698E+00
1.4023609284E+00    1.4012229328E+00    1.3985500346E+00    1.3943109000E+00
1.3884780813E+00    1.3810284707E+00    1.3719437314E+00    1.3612107017E+00
1.3488217657E+00    1.3347751880E+00    1.3190754054E+00    1.3017332754E+00
1.2827662744E+00    1.2621986455E+00    1.2400614913E+00    1.2163928123E+00
1.1912374869E+00    1.1646471940E+00    1.1366802783E+00    1.1074015573E+00
1.0768820731E+00    1.0451987882E+00    1.0124342307E+00    9.7867608894E-01
9.4401676024E-01    9.0855285795E-01    8.7238468013E-01    8.3561564519E-01
7.9835169938E-01    7.6070070158E-01    7.2277179074E-01    6.8467474202E-01
6.4651931733E-01    6.0841461613E-01    5.7046843269E-01    5.3278662520E-01
4.9547250284E-01    4.5862623593E-01    4.2234429458E-01    3.8671892057E-01
3.5183763717E-01    3.1778280065E-01    2.8463119747E-01    2.5245368998E-01
2.2131491343E-01    1.9127302607E-01    1.6237951417E-01    1.3467905239E-01
1.0820942020E-01    8.3001473825E-02    5.9079172846E-02    3.6459660200E-02
1.5153393445E-02   -4.8356750641E-03   -2.3509872046E-02   -4.0877534563E-02
-5.6952702425E-02   -7.1754775823E-02   -8.5308142489E-02   -9.7641779018E-02
-1.0878883107E-01   -1.1878617730E-01   -1.2767398196E-01   -1.3549524095E-01
-1.4229532636E-01   -1.4812153391E-01   -1.5302263809E-01   -1.5704845908E-01
-1.6024944550E-01   -1.6267627675E-01   -1.6437948827E-01   -1.6540912230E-01
-1.6581440726E-01   -1.6564346722E-01   -1.6494306326E-01   -1.6375836802E-01
-1.6213277375E-01   -1.6010773418E-01   -1.5772264009E-01   -1.5501472740E-01
-1.5201901705E-01   -1.4876828490E-01   -1.4529305956E-01   -1.4162164627E-01
-1.3778017380E-01   -1.3379266194E-01   -1.2968110628E-01   -1.2546557728E-01
-1.2116433028E-01   -1.1679392307E-01   -1.1236933780E-01   -1.0790410299E-01
-1.0341041618E-01   -9.8899256416E-02   -9.4380517789E-02   -8.9863016346E-02
-8.5354669192E-02   -8.0862851468E-02   -7.6394722262E-02   -7.1957640701E-02
-6.7559277858E-02   -6.3207654685E-02   -5.8911253072E-02   -5.4679054920E-02
-5.0520573791E-02   -4.6445859613E-02   -4.2465480857E-02   -3.8590486300E-02
-3.4832346182E-02   -3.1202875672E-02   -2.7714141627E-02   -2.4378355590E-02
-2.1207754763E-02   -1.8214474040E-02   -1.5410411192E-02   -1.2807088413E-02
-1.0415512416E-02   -8.2460362267E-03   -6.3082249043E-03   -4.6111578010E-03
-3.1620303544E-03   -1.9645716867E-03   -1.0258963944E-03   -3.5964109742E-04
3.6369522182E-05    1.8560541680E-04    1.3401099157E-04    1.8664610488E-05
-2.8920001928E-05   -1.2828757471E-05    5.1840111556E-06    4.3731700733E-06
-3.0736699402E-07   -4.7625038578E-07    0.0000000000E+00    0.0000000000E+00
0.0000000000E+00    0.0000000000E+00    0.0000000000E+00    0.0000000000E+00
0. 0. 0. 0.
0. 0. 0. 0.
0. 0. 0. 0.
0. 0. 0. 0.
0. 0. 0. 0.
0. 0. 0. 0.
0. 0. 0. 0.
0. 0. 0. 0.
0. 0. 0. 0.
0. 0. 0. 0.
0. 0. 0. 0.
0. 0. 0. 0.
0. 0. 0. 0.
0. 0. 0. 0.
0. 0. 0. 0.
0. 0. 0. 0.
0. 0. 0. 0.
0. 0. 0. 0.
0. 0. 0. 0.
0. 0. 0. 0.
0. 0. 0. 0.
0. 0. 0. 0.
0. 0. 0. 0.
0. 0. 0. 0.
0. 0. 0. 0.
0. 0. 0. 0.
0. 0. 0. 0.
0. 0. 0. 0.
0. 0. 0. 0.
0. 0. 0. 0.