<UPF version="2.0.1">
<PP_INFO>
NOTE!!!!
This file is trimmed with a mesh size of 600 from the original version.
Trimming performed at 2023-03-31 09:10:05.169355 by trim_upf.py version 0.1.0

This pseudopotential file has been produced using the code
ONCVPSP  (Optimized Norm-Conservinng Vanderbilt PSeudopotential)
scalar-relativistic version 3.3.0 08/16/2017 by D. R. Hamann
The code is available through a link at URL www.mat-simresearch.com.
Documentation with the package provides a full discription of the
input data below.
While it is not required under the terms of the GNU GPL, it is
suggested that you cite D. R. Hamann, Phys. Rev. B 88, 085117 (2013)
in any publication using these pseudopotentials.
<PP_INPUTFILE>
# ATOM AND REFERENCE CONFIGURATION
# atsym  z   nc   nv     iexc    psfile
C  6.00    1    2       4      upf
#
#   n    l    f        energy (Ha)
1    0    2.00
2    0    2.00
2    1    2.00
#
# PSEUDOPOTENTIAL AND OPTIMIZATION
# lmax
1
#
#   l,   rc,      ep,       ncon, nbas, qcut
0   1.20000  -0.50533    4    7   9.00000
1   1.25000  -0.19424    4    8   9.40000
#
# LOCAL POTENTIAL
# lloc, lpopt,  rc(5),   dvloc0
4    5   1.20000      0.00000
#
# VANDERBILT-KLEINMAN-BYLANDER PROJECTORs
# l, nproj, debl
0    2   2.00000
1    2   1.50000
#
# MODEL CORE CHARGE
# icmod, fcfact, rcfact
3   4.00000   1.55000
#
# LOG DERIVATIVE ANALYSIS
# epsh1, epsh2, depsh
-12.00   12.00    0.02
#
# OUTPUT GRID
# rlmax, drl
6.00    0.01
#
# TEST CONFIGURATIONS
# ncnf
0
# nvcnf
#   n    l    f
</PP_INPUTFILE>
</PP_INFO>
<!--                               -->
<!-- END OF HUMAN READABLE SECTION -->
<!--                               -->
<PP_HEADER
generated="Generated using ONCVPSP code by D. R. Hamann"
author="anonymous"
date="171031"
comment=""
element="C "
pseudo_type="NC"
relativistic="scalar"
is_ultrasoft="F"
is_paw="F"
is_coulomb="F"
has_so="F"
has_wfc="F"
has_gipaw="F"
core_correction="T"
functional="PBE"
z_valence="    4.00"
total_psenergy="  -1.07778773721E+01"
rho_cutoff="   1.24700000000E+01"
l_max="1"
l_local="-1"
mesh_size="   600"
number_of_wfc="2"
number_of_proj="4"/>
<PP_MESH>
<PP_R type="real"  size="600" columns="8">
0.0000    0.0100    0.0200    0.0300    0.0400    0.0500    0.0600    0.0700
0.0800    0.0900    0.1000    0.1100    0.1200    0.1300    0.1400    0.1500
0.1600    0.1700    0.1800    0.1900    0.2000    0.2100    0.2200    0.2300
0.2400    0.2500    0.2600    0.2700    0.2800    0.2900    0.3000    0.3100
0.3200    0.3300    0.3400    0.3500    0.3600    0.3700    0.3800    0.3900
0.4000    0.4100    0.4200    0.4300    0.4400    0.4500    0.4600    0.4700
0.4800    0.4900    0.5000    0.5100    0.5200    0.5300    0.5400    0.5500
0.5600    0.5700    0.5800    0.5900    0.6000    0.6100    0.6200    0.6300
0.6400    0.6500    0.6600    0.6700    0.6800    0.6900    0.7000    0.7100
0.7200    0.7300    0.7400    0.7500    0.7600    0.7700    0.7800    0.7900
0.8000    0.8100    0.8200    0.8300    0.8400    0.8500    0.8600    0.8700
0.8800    0.8900    0.9000    0.9100    0.9200    0.9300    0.9400    0.9500
0.9600    0.9700    0.9800    0.9900    1.0000    1.0100    1.0200    1.0300
1.0400    1.0500    1.0600    1.0700    1.0800    1.0900    1.1000    1.1100
1.1200    1.1300    1.1400    1.1500    1.1600    1.1700    1.1800    1.1900
1.2000    1.2100    1.2200    1.2300    1.2400    1.2500    1.2600    1.2700
1.2800    1.2900    1.3000    1.3100    1.3200    1.3300    1.3400    1.3500
1.3600    1.3700    1.3800    1.3900    1.4000    1.4100    1.4200    1.4300
1.4400    1.4500    1.4600    1.4700    1.4800    1.4900    1.5000    1.5100
1.5200    1.5300    1.5400    1.5500    1.5600    1.5700    1.5800    1.5900
1.6000    1.6100    1.6200    1.6300    1.6400    1.6500    1.6600    1.6700
1.6800    1.6900    1.7000    1.7100    1.7200    1.7300    1.7400    1.7500
1.7600    1.7700    1.7800    1.7900    1.8000    1.8100    1.8200    1.8300
1.8400    1.8500    1.8600    1.8700    1.8800    1.8900    1.9000    1.9100
1.9200    1.9300    1.9400    1.9500    1.9600    1.9700    1.9800    1.9900
2.0000    2.0100    2.0200    2.0300    2.0400    2.0500    2.0600    2.0700
2.0800    2.0900    2.1000    2.1100    2.1200    2.1300    2.1400    2.1500
2.1600    2.1700    2.1800    2.1900    2.2000    2.2100    2.2200    2.2300
2.2400    2.2500    2.2600    2.2700    2.2800    2.2900    2.3000    2.3100
2.3200    2.3300    2.3400    2.3500    2.3600    2.3700    2.3800    2.3900
2.4000    2.4100    2.4200    2.4300    2.4400    2.4500    2.4600    2.4700
2.4800    2.4900    2.5000    2.5100    2.5200    2.5300    2.5400    2.5500
2.5600    2.5700    2.5800    2.5900    2.6000    2.6100    2.6200    2.6300
2.6400    2.6500    2.6600    2.6700    2.6800    2.6900    2.7000    2.7100
2.7200    2.7300    2.7400    2.7500    2.7600    2.7700    2.7800    2.7900
2.8000    2.8100    2.8200    2.8300    2.8400    2.8500    2.8600    2.8700
2.8800    2.8900    2.9000    2.9100    2.9200    2.9300    2.9400    2.9500
2.9600    2.9700    2.9800    2.9900    3.0000    3.0100    3.0200    3.0300
3.0400    3.0500    3.0600    3.0700    3.0800    3.0900    3.1000    3.1100
3.1200    3.1300    3.1400    3.1500    3.1600    3.1700    3.1800    3.1900
3.2000    3.2100    3.2200    3.2300    3.2400    3.2500    3.2600    3.2700
3.2800    3.2900    3.3000    3.3100    3.3200    3.3300    3.3400    3.3500
3.3600    3.3700    3.3800    3.3900    3.4000    3.4100    3.4200    3.4300
3.4400    3.4500    3.4600    3.4700    3.4800    3.4900    3.5000    3.5100
3.5200    3.5300    3.5400    3.5500    3.5600    3.5700    3.5800    3.5900
3.6000    3.6100    3.6200    3.6300    3.6400    3.6500    3.6600    3.6700
3.6800    3.6900    3.7000    3.7100    3.7200    3.7300    3.7400    3.7500
3.7600    3.7700    3.7800    3.7900    3.8000    3.8100    3.8200    3.8300
3.8400    3.8500    3.8600    3.8700    3.8800    3.8900    3.9000    3.9100
3.9200    3.9300    3.9400    3.9500    3.9600    3.9700    3.9800    3.9900
4.0000    4.0100    4.0200    4.0300    4.0400    4.0500    4.0600    4.0700
4.0800    4.0900    4.1000    4.1100    4.1200    4.1300    4.1400    4.1500
4.1600    4.1700    4.1800    4.1900    4.2000    4.2100    4.2200    4.2300
4.2400    4.2500    4.2600    4.2700    4.2800    4.2900    4.3000    4.3100
4.3200    4.3300    4.3400    4.3500    4.3600    4.3700    4.3800    4.3900
4.4000    4.4100    4.4200    4.4300    4.4400    4.4500    4.4600    4.4700
4.4800    4.4900    4.5000    4.5100    4.5200    4.5300    4.5400    4.5500
4.5600    4.5700    4.5800    4.5900    4.6000    4.6100    4.6200    4.6300
4.6400    4.6500    4.6600    4.6700    4.6800    4.6900    4.7000    4.7100
4.7200    4.7300    4.7400    4.7500    4.7600    4.7700    4.7800    4.7900
4.8000    4.8100    4.8200    4.8300    4.8400    4.8500    4.8600    4.8700
4.8800    4.8900    4.9000    4.9100    4.9200    4.9300    4.9400    4.9500
4.9600    4.9700    4.9800    4.9900    5.0000    5.0100    5.0200    5.0300
5.0400    5.0500    5.0600    5.0700    5.0800    5.0900    5.1000    5.1100
5.1200    5.1300    5.1400    5.1500    5.1600    5.1700    5.1800    5.1900
5.2000    5.2100    5.2200    5.2300    5.2400    5.2500    5.2600    5.2700
5.2800    5.2900    5.3000    5.3100    5.3200    5.3300    5.3400    5.3500
5.3600    5.3700    5.3800    5.3900    5.4000    5.4100    5.4200    5.4300
5.4400    5.4500    5.4600    5.4700    5.4800    5.4900    5.5000    5.5100
5.5200    5.5300    5.5400    5.5500    5.5600    5.5700    5.5800    5.5900
5.6000    5.6100    5.6200    5.6300    5.6400    5.6500    5.6600    5.6700
5.6800    5.6900    5.7000    5.7100    5.7200    5.7300    5.7400    5.7500
5.7600    5.7700    5.7800    5.7900    5.8000    5.8100    5.8200    5.8300
5.8400    5.8500    5.8600    5.8700    5.8800    5.8900    5.9000    5.9100
5.9200    5.9300    5.9400    5.9500    5.9600    5.9700    5.9800    5.9900
</PP_R>
<PP_RAB type="real"  size="600" columns="8">
0.0100    0.0100    0.0100    0.0100    0.0100    0.0100    0.0100    0.0100
0.0100    0.0100    0.0100    0.0100    0.0100    0.0100    0.0100    0.0100
0.0100    0.0100    0.0100    0.0100    0.0100    0.0100    0.0100    0.0100
0.0100    0.0100    0.0100    0.0100    0.0100    0.0100    0.0100    0.0100
0.0100    0.0100    0.0100    0.0100    0.0100    0.0100    0.0100    0.0100
0.0100    0.0100    0.0100    0.0100    0.0100    0.0100    0.0100    0.0100
0.0100    0.0100    0.0100    0.0100    0.0100    0.0100    0.0100    0.0100
0.0100    0.0100    0.0100    0.0100    0.0100    0.0100    0.0100    0.0100
0.0100    0.0100    0.0100    0.0100    0.0100    0.0100    0.0100    0.0100
0.0100    0.0100    0.0100    0.0100    0.0100    0.0100    0.0100    0.0100
0.0100    0.0100    0.0100    0.0100    0.0100    0.0100    0.0100    0.0100
0.0100    0.0100    0.0100    0.0100    0.0100    0.0100    0.0100    0.0100
0.0100    0.0100    0.0100    0.0100    0.0100    0.0100    0.0100    0.0100
0.0100    0.0100    0.0100    0.0100    0.0100    0.0100    0.0100    0.0100
0.0100    0.0100    0.0100    0.0100    0.0100    0.0100    0.0100    0.0100
0.0100    0.0100    0.0100    0.0100    0.0100    0.0100    0.0100    0.0100
0.0100    0.0100    0.0100    0.0100    0.0100    0.0100    0.0100    0.0100
0.0100    0.0100    0.0100    0.0100    0.0100    0.0100    0.0100    0.0100
0.0100    0.0100    0.0100    0.0100    0.0100    0.0100    0.0100    0.0100
0.0100    0.0100    0.0100    0.0100    0.0100    0.0100    0.0100    0.0100
0.0100    0.0100    0.0100    0.0100    0.0100    0.0100    0.0100    0.0100
0.0100    0.0100    0.0100    0.0100    0.0100    0.0100    0.0100    0.0100
0.0100    0.0100    0.0100    0.0100    0.0100    0.0100    0.0100    0.0100
0.0100    0.0100    0.0100    0.0100    0.0100    0.0100    0.0100    0.0100
0.0100    0.0100    0.0100    0.0100    0.0100    0.0100    0.0100    0.0100
0.0100    0.0100    0.0100    0.0100    0.0100    0.0100    0.0100    0.0100
0.0100    0.0100    0.0100    0.0100    0.0100    0.0100    0.0100    0.0100
0.0100    0.0100    0.0100    0.0100    0.0100    0.0100    0.0100    0.0100
0.0100    0.0100    0.0100    0.0100    0.0100    0.0100    0.0100    0.0100
0.0100    0.0100    0.0100    0.0100    0.0100    0.0100    0.0100    0.0100
0.0100    0.0100    0.0100    0.0100    0.0100    0.0100    0.0100    0.0100
0.0100    0.0100    0.0100    0.0100    0.0100    0.0100    0.0100    0.0100
0.0100    0.0100    0.0100    0.0100    0.0100    0.0100    0.0100    0.0100
0.0100    0.0100    0.0100    0.0100    0.0100    0.0100    0.0100    0.0100
0.0100    0.0100    0.0100    0.0100    0.0100    0.0100    0.0100    0.0100
0.0100    0.0100    0.0100    0.0100    0.0100    0.0100    0.0100    0.0100
0.0100    0.0100    0.0100    0.0100    0.0100    0.0100    0.0100    0.0100
0.0100    0.0100    0.0100    0.0100    0.0100    0.0100    0.0100    0.0100
0.0100    0.0100    0.0100    0.0100    0.0100    0.0100    0.0100    0.0100
0.0100    0.0100    0.0100    0.0100    0.0100    0.0100    0.0100    0.0100
0.0100    0.0100    0.0100    0.0100    0.0100    0.0100    0.0100    0.0100
0.0100    0.0100    0.0100    0.0100    0.0100    0.0100    0.0100    0.0100
0.0100    0.0100    0.0100    0.0100    0.0100    0.0100    0.0100    0.0100
0.0100    0.0100    0.0100    0.0100    0.0100    0.0100    0.0100    0.0100
0.0100    0.0100    0.0100    0.0100    0.0100    0.0100    0.0100    0.0100
0.0100    0.0100    0.0100    0.0100    0.0100    0.0100    0.0100    0.0100
0.0100    0.0100    0.0100    0.0100    0.0100    0.0100    0.0100    0.0100
0.0100    0.0100    0.0100    0.0100    0.0100    0.0100    0.0100    0.0100
0.0100    0.0100    0.0100    0.0100    0.0100    0.0100    0.0100    0.0100
0.0100    0.0100    0.0100    0.0100    0.0100    0.0100    0.0100    0.0100
0.0100    0.0100    0.0100    0.0100    0.0100    0.0100    0.0100    0.0100
0.0100    0.0100    0.0100    0.0100    0.0100    0.0100    0.0100    0.0100
0.0100    0.0100    0.0100    0.0100    0.0100    0.0100    0.0100    0.0100
0.0100    0.0100    0.0100    0.0100    0.0100    0.0100    0.0100    0.0100
0.0100    0.0100    0.0100    0.0100    0.0100    0.0100    0.0100    0.0100
0.0100    0.0100    0.0100    0.0100    0.0100    0.0100    0.0100    0.0100
0.0100    0.0100    0.0100    0.0100    0.0100    0.0100    0.0100    0.0100
0.0100    0.0100    0.0100    0.0100    0.0100    0.0100    0.0100    0.0100
0.0100    0.0100    0.0100    0.0100    0.0100    0.0100    0.0100    0.0100
0.0100    0.0100    0.0100    0.0100    0.0100    0.0100    0.0100    0.0100
0.0100    0.0100    0.0100    0.0100    0.0100    0.0100    0.0100    0.0100
0.0100    0.0100    0.0100    0.0100    0.0100    0.0100    0.0100    0.0100
0.0100    0.0100    0.0100    0.0100    0.0100    0.0100    0.0100    0.0100
0.0100    0.0100    0.0100    0.0100    0.0100    0.0100    0.0100    0.0100
0.0100    0.0100    0.0100    0.0100    0.0100    0.0100    0.0100    0.0100
0.0100    0.0100    0.0100    0.0100    0.0100    0.0100    0.0100    0.0100
0.0100    0.0100    0.0100    0.0100    0.0100    0.0100    0.0100    0.0100
0.0100    0.0100    0.0100    0.0100    0.0100    0.0100    0.0100    0.0100
0.0100    0.0100    0.0100    0.0100    0.0100    0.0100    0.0100    0.0100
0.0100    0.0100    0.0100    0.0100    0.0100    0.0100    0.0100    0.0100
0.0100    0.0100    0.0100    0.0100    0.0100    0.0100    0.0100    0.0100
0.0100    0.0100    0.0100    0.0100    0.0100    0.0100    0.0100    0.0100
0.0100    0.0100    0.0100    0.0100    0.0100    0.0100    0.0100    0.0100
0.0100    0.0100    0.0100    0.0100    0.0100    0.0100    0.0100    0.0100
0.0100    0.0100    0.0100    0.0100    0.0100    0.0100    0.0100    0.0100
</PP_RAB>
</PP_MESH>
<PP_LOCAL type="real"  size="600" columns="4">
-1.3676340538E+01   -1.3675462043E+01   -1.3672827397E+01   -1.3668439144E+01
-1.3662301508E+01   -1.3654420377E+01   -1.3644803285E+01   -1.3633459377E+01
-1.3620399384E+01   -1.3605635578E+01   -1.3589181739E+01   -1.3571053109E+01
-1.3551266350E+01   -1.3529839495E+01   -1.3506791904E+01   -1.3482144214E+01
-1.3455918283E+01   -1.3428137145E+01   -1.3398824942E+01   -1.3368006868E+01
-1.3335709100E+01   -1.3301958723E+01   -1.3266783646E+01   -1.3230212517E+01
-1.3192274619E+01   -1.3152999764E+01   -1.3112418179E+01   -1.3070560378E+01
-1.3027457031E+01   -1.2983138827E+01   -1.2937636330E+01   -1.2890979837E+01
-1.2843199229E+01   -1.2794323832E+01   -1.2744382280E+01   -1.2693402381E+01
-1.2641410999E+01   -1.2588433951E+01   -1.2534495905E+01   -1.2479620313E+01
-1.2423829350E+01   -1.2367143873E+01   -1.2309583408E+01   -1.2251166151E+01
-1.2191908991E+01   -1.2131827555E+01   -1.2070936272E+01   -1.2009248455E+01
-1.1946776397E+01   -1.1883531482E+01   -1.1819524317E+01   -1.1754764857E+01
-1.1689262551E+01   -1.1623026490E+01   -1.1556065548E+01   -1.1488388535E+01
-1.1420004341E+01   -1.1350922069E+01   -1.1281151173E+01   -1.1210701582E+01
-1.1139583810E+01   -1.1067809066E+01   -1.0995389349E+01   -1.0922337533E+01
-1.0848667449E+01   -1.0774393953E+01   -1.0699532996E+01   -1.0624101684E+01
-1.0548118338E+01   -1.0471602552E+01   -1.0394575251E+01   -1.0317058750E+01
-1.0239076809E+01   -1.0160654693E+01   -1.0081819225E+01   -1.0002598838E+01
-9.9230236201E+00   -9.8431253487E+00   -9.7629375113E+00   -9.6824953115E+00
-9.6018356537E+00   -9.5209971058E+00   -9.4400198362E+00   -9.3589455243E+00
-9.2778172433E+00   -9.1966793166E+00   -9.1155771488E+00   -9.0345570334E+00
-8.9536659424E+00   -8.8729513003E+00   -8.7924607493E+00   -8.7122419092E+00
-8.6323421391E+00   -8.5528083051E+00   -8.4736865584E+00   -8.3950221294E+00
-8.3168591389E+00   -8.2392404314E+00   -8.1622074285E+00   -8.0858000065E+00
-8.0100563944E+00   -7.9350130932E+00   -7.8607048127E+00   -7.7871644237E+00
-7.7144229232E+00   -7.6425094073E+00   -7.5714510495E+00   -7.5012730802E+00
-7.4319987643E+00   -7.3636493729E+00   -7.2962441464E+00   -7.2298002474E+00
-7.1643327005E+00   -7.0998543177E+00   -7.0363756097E+00   -6.9739046814E+00
-6.9124471167E+00   -6.8520058472E+00   -6.7925810022E+00   -6.7341697517E+00
-6.6767663234E+00   -6.6203621708E+00   -6.5649470076E+00   -6.5105093608E+00
-6.4570361715E+00   -6.4045132424E+00   -6.3529205642E+00   -6.3022275620E+00
-6.2523921374E+00   -6.2033744565E+00   -6.1551542591E+00   -6.1077183169E+00
-6.0610532342E+00   -6.0151374277E+00   -5.9699508971E+00   -5.9254773666E+00
-5.8816991184E+00   -5.8385984998E+00   -5.7961584600E+00   -5.7543622161E+00
-5.7131933204E+00   -5.6726357110E+00   -5.6326737284E+00   -5.5932921359E+00
-5.5544761375E+00   -5.5162113913E+00   -5.4784840205E+00   -5.4412806210E+00
-5.4045882656E+00   -5.3683945050E+00   -5.3326873670E+00   -5.2974553515E+00
-5.2626874240E+00   -5.2283730069E+00   -5.1945019677E+00   -5.1610646064E+00
-5.1280516405E+00   -5.0954541894E+00   -5.0632637564E+00   -5.0314722110E+00
-5.0000717696E+00   -4.9690549760E+00   -4.9384146814E+00   -4.9081440249E+00
-4.8782364129E+00   -4.8486854996E+00   -4.8194851682E+00   -4.7906295115E+00
-4.7621128140E+00   -4.7339295353E+00   -4.7060742927E+00   -4.6785418470E+00
-4.6513270878E+00   -4.6244250203E+00   -4.5978307540E+00   -4.5715394915E+00
-4.5455465197E+00   -4.5198472011E+00   -4.4944369672E+00   -4.4693113126E+00
-4.4444657905E+00   -4.4198960088E+00   -4.3955976277E+00   -4.3715663581E+00
-4.3477979606E+00   -4.3242882455E+00   -4.3010330733E+00   -4.2780283560E+00
-4.2552700581E+00   -4.2327541994E+00   -4.2104768564E+00   -4.1884341647E+00
-4.1666223221E+00   -4.1450375900E+00   -4.1236762967E+00   -4.1025348387E+00
-4.0816096835E+00   -4.0608973703E+00   -4.0403945127E+00   -4.0200977986E+00
-4.0000039917E+00   -3.9801099314E+00   -3.9604125328E+00   -3.9409087866E+00
-3.9215957580E+00   -3.9024705858E+00   -3.8835304807E+00   -3.8647727238E+00
-3.8461946642E+00   -3.8277937170E+00   -3.8095673608E+00   -3.7915131349E+00
-3.7736286367E+00   -3.7559115189E+00   -3.7383594863E+00   -3.7209702934E+00
-3.7037417412E+00   -3.6866716748E+00   -3.6697579803E+00   -3.6529985828E+00
-3.6363914439E+00   -3.6199345593E+00   -3.6036259571E+00   -3.5874636960E+00
-3.5714458637E+00   -3.5555705758E+00   -3.5398359742E+00   -3.5242402270E+00
-3.5087815269E+00   -3.4934580913E+00   -3.4782681618E+00   -3.4632100039E+00
-3.4482819071E+00   -3.4334821849E+00   -3.4188091748E+00   -3.4042612387E+00
-3.3898367631E+00   -3.3755341592E+00   -3.3613518635E+00   -3.3472883375E+00
-3.3333420688E+00   -3.3195115702E+00   -3.3057953806E+00   -3.2921920649E+00
-3.2787002136E+00   -3.2653184430E+00   -3.2520453948E+00   -3.2388797361E+00
-3.2258201584E+00   -3.2128653779E+00   -3.2000141344E+00   -3.1872651908E+00
-3.1746173322E+00   -3.1620693642E+00   -3.1496201177E+00   -3.1372684438E+00
-3.1250132181E+00   -3.1128533143E+00   -3.1007876201E+00   -3.0888150365E+00
-3.0769345290E+00   -3.0651451054E+00   -3.0534457885E+00   -3.0418355645E+00
-3.0303133744E+00   -3.0188781725E+00   -3.0075289372E+00   -2.9962647098E+00
-2.9850845394E+00   -2.9739874968E+00   -2.9629726531E+00   -2.9520390994E+00
-2.9411859403E+00   -2.9304122925E+00   -2.9197172853E+00   -2.9091000601E+00
-2.8985597714E+00   -2.8880955862E+00   -2.8777066832E+00   -2.8673922531E+00
-2.8571514977E+00   -2.8469836307E+00   -2.8368878765E+00   -2.8268634708E+00
-2.8169096598E+00   -2.8070257005E+00   -2.7972108601E+00   -2.7874644162E+00
-2.7777856563E+00   -2.7681738777E+00   -2.7586283877E+00   -2.7491485028E+00
-2.7397335489E+00   -2.7303828613E+00   -2.7210957842E+00   -2.7118716707E+00
-2.7027098827E+00   -2.6936097906E+00   -2.6845707733E+00   -2.6755922180E+00
-2.6666735202E+00   -2.6578140832E+00   -2.6490133184E+00   -2.6402706448E+00
-2.6315854892E+00   -2.6229572859E+00   -2.6143854764E+00   -2.6058695097E+00
-2.5974088420E+00   -2.5890029362E+00   -2.5806512625E+00   -2.5723532978E+00
-2.5641085255E+00   -2.5559164359E+00   -2.5477765257E+00   -2.5396882978E+00
-2.5316512617E+00   -2.5236649328E+00   -2.5157288329E+00   -2.5078424895E+00
-2.5000054362E+00   -2.4922172123E+00   -2.4844773629E+00   -2.4767854388E+00
-2.4691409960E+00   -2.4615435965E+00   -2.4539928072E+00   -2.4464882005E+00
-2.4390293541E+00   -2.4316158506E+00   -2.4242472779E+00   -2.4169232288E+00
-2.4096433008E+00   -2.4024070966E+00   -2.3952142235E+00   -2.3880642933E+00
-2.3809569226E+00   -2.3738917326E+00   -2.3668683489E+00   -2.3598864016E+00
-2.3529455250E+00   -2.3460453578E+00   -2.3391855429E+00   -2.3323657274E+00
-2.3255855623E+00   -2.3188447028E+00   -2.3121428083E+00   -2.3054795419E+00
-2.2988545706E+00   -2.2922675654E+00   -2.2857182008E+00   -2.2792061550E+00
-2.2727311097E+00   -2.2662927506E+00   -2.2598907666E+00   -2.2535248504E+00
-2.2471946982E+00   -2.2409000095E+00   -2.2346404872E+00   -2.2284158373E+00
-2.2222257693E+00   -2.2160699957E+00   -2.2099482322E+00   -2.2038601979E+00
-2.1978056146E+00   -2.1917842076E+00   -2.1857957048E+00   -2.1798398372E+00
-2.1739163389E+00   -2.1680249467E+00   -2.1621654002E+00   -2.1563374419E+00
-2.1505408170E+00   -2.1447752737E+00   -2.1390405624E+00   -2.1333364367E+00
-2.1276626523E+00   -2.1220189680E+00   -2.1164051448E+00   -2.1108209463E+00
-2.1052661387E+00   -2.0997404905E+00   -2.0942437726E+00   -2.0887757587E+00
-2.0833362242E+00   -2.0779249474E+00   -2.0725417086E+00   -2.0671862905E+00
-2.0618584779E+00   -2.0565580579E+00   -2.0512848199E+00   -2.0460385552E+00
-2.0408190575E+00   -2.0356261224E+00   -2.0304595476E+00   -2.0253191330E+00
-2.0202046804E+00   -2.0151159935E+00   -2.0100528781E+00   -2.0050151420E+00
-2.0000025949E+00   -1.9950150482E+00   -1.9900523154E+00   -1.9851142118E+00
-1.9802005545E+00   -1.9753111624E+00   -1.9704458562E+00   -1.9656044583E+00
-1.9607867930E+00   -1.9559926862E+00   -1.9512219655E+00   -1.9464744602E+00
-1.9417500012E+00   -1.9370484211E+00   -1.9323695542E+00   -1.9277132362E+00
-1.9230793045E+00   -1.9184675981E+00   -1.9138779575E+00   -1.9093102246E+00
-1.9047642430E+00   -1.9002398577E+00   -1.8957369151E+00   -1.8912552632E+00
-1.8867947513E+00   -1.8823552302E+00   -1.8779365520E+00   -1.8735385704E+00
-1.8691611403E+00   -1.8648041178E+00   -1.8604673608E+00   -1.8561507280E+00
-1.8518540798E+00   -1.8475772776E+00   -1.8433201843E+00   -1.8390826640E+00
-1.8348645819E+00   -1.8306658047E+00   -1.8264862001E+00   -1.8223256371E+00
-1.8181839858E+00   -1.8140611177E+00   -1.8099569051E+00   -1.8058712218E+00
-1.8018039425E+00   -1.7977549433E+00   -1.7937241011E+00   -1.7897112941E+00
-1.7857164014E+00   -1.7817393035E+00   -1.7777798816E+00   -1.7738380182E+00
-1.7699135967E+00   -1.7660065017E+00   -1.7621166186E+00   -1.7582438340E+00
-1.7543880353E+00   -1.7505491111E+00   -1.7467269508E+00   -1.7429214448E+00
-1.7391324845E+00   -1.7353599624E+00   -1.7316037715E+00   -1.7278638061E+00
-1.7241399613E+00   -1.7204321331E+00   -1.7167402183E+00   -1.7130641148E+00
-1.7094037211E+00   -1.7057589369E+00   -1.7021296624E+00   -1.6985157988E+00
-1.6949172483E+00   -1.6913339136E+00   -1.6877656986E+00   -1.6842125076E+00
-1.6806742460E+00   -1.6771508199E+00   -1.6736421362E+00   -1.6701481026E+00
-1.6666686274E+00   -1.6632036200E+00   -1.6597529901E+00   -1.6563166486E+00
-1.6528945069E+00   -1.6494864771E+00   -1.6460924722E+00   -1.6427124056E+00
-1.6393461918E+00   -1.6359937458E+00   -1.6326549832E+00   -1.6293298204E+00
-1.6260181746E+00   -1.6227199635E+00   -1.6194351054E+00   -1.6161635195E+00
-1.6129051255E+00   -1.6096598437E+00   -1.6064275951E+00   -1.6032083015E+00
-1.6000018850E+00   -1.5968082686E+00   -1.5936273758E+00   -1.5904591306E+00
-1.5873034579E+00   -1.5841602828E+00   -1.5810295314E+00   -1.5779111300E+00
-1.5748050058E+00   -1.5717110864E+00   -1.5686293000E+00   -1.5655595754E+00
-1.5625018419E+00   -1.5594560293E+00   -1.5564220682E+00   -1.5533998894E+00
-1.5503894244E+00   -1.5473906054E+00   -1.5444033648E+00   -1.5414276357E+00
-1.5384633517E+00   -1.5355104469E+00   -1.5325688558E+00   -1.5296385137E+00
-1.5267193561E+00   -1.5238113190E+00   -1.5209143391E+00   -1.5180283534E+00
-1.5151532995E+00   -1.5122891153E+00   -1.5094357394E+00   -1.5065931106E+00
-1.5037611683E+00   -1.5009398525E+00   -1.4981291033E+00   -1.4953288616E+00
-1.4925390686E+00   -1.4897596658E+00   -1.4869905954E+00   -1.4842317997E+00
-1.4814832218E+00   -1.4787448050E+00   -1.4760164931E+00   -1.4732982301E+00
-1.4705899608E+00   -1.4678916300E+00   -1.4652031832E+00   -1.4625245661E+00
-1.4598557250E+00   -1.4571966065E+00   -1.4545471574E+00   -1.4519073252E+00
-1.4492770576E+00   -1.4466563027E+00   -1.4440450089E+00   -1.4414431252E+00
-1.4388506008E+00   -1.4362673853E+00   -1.4336934285E+00   -1.4311286809E+00
-1.4285730931E+00   -1.4260266161E+00   -1.4234892012E+00   -1.4209608003E+00
-1.4184413653E+00   -1.4159308486E+00   -1.4134292030E+00   -1.4109363815E+00
-1.4084523375E+00   -1.4059770248E+00   -1.4035103973E+00   -1.4010524095E+00
-1.3986030161E+00   -1.3961621719E+00   -1.3937298325E+00   -1.3913059533E+00
-1.3888904904E+00   -1.3864833999E+00   -1.3840846385E+00   -1.3816941629E+00
-1.3793119303E+00   -1.3769378981E+00   -1.3745720242E+00   -1.3722142664E+00
-1.3698645830E+00   -1.3675229328E+00   -1.3651892745E+00   -1.3628635674E+00
-1.3605457708E+00   -1.3582358444E+00   -1.3559337483E+00   -1.3536394427E+00
-1.3513528881E+00   -1.3490740453E+00   -1.3468028754E+00   -1.3445393396E+00
-1.3422833996E+00   -1.3400350171E+00   -1.3377941543E+00   -1.3355607735E+00
</PP_LOCAL>
<PP_NONLOCAL>
<PP_BETA.1
type="real"
size="600"
columns="4"
index="1"
angular_momentum="0"
cutoff_radius_index=" 132"
cutoff_radius="    1.3100000000E+00" >
-1.1200903538E-09    7.5046259160E-02    1.4986447909E-01    2.2422833821E-01
2.9791492915E-01    3.7070641340E-01    4.4239161376E-01    5.1276752537E-01
5.8164072684E-01    6.4882867479E-01    7.1416086633E-01    7.7747985620E-01
8.3864211692E-01    8.9751873273E-01    9.5399592025E-01    1.0079753712E+00
1.0593744149E+00    1.1081260009E+00    1.1541785047E+00    1.1974953608E+00
1.2380545316E+00    1.2758478215E+00    1.3108800483E+00    1.3431680844E+00
1.3727397855E+00    1.3996328223E+00    1.4238934340E+00    1.4455751227E+00
1.4647373096E+00    1.4814439725E+00    1.4957622869E+00    1.5077612888E+00
1.5175105829E+00    1.5250791122E+00    1.5305340100E+00    1.5339395502E+00
1.5353562125E+00    1.5348398756E+00    1.5324411509E+00    1.5282048671E+00
1.5221697116E+00    1.5143680364E+00    1.5048258282E+00    1.4935628460E+00
1.4805929209E+00    1.4659244149E+00    1.4495608310E+00    1.4315015635E+00
1.4117427786E+00    1.3902784085E+00    1.3671012454E+00    1.3422041148E+00
1.3155811117E+00    1.2872288770E+00    1.2571478932E+00    1.2253437792E+00
1.1918285587E+00    1.1566218828E+00    1.1197521844E+00    1.0812577416E+00
1.0411876322E+00    9.9960255933E-01    9.5657553060E-01    9.1219237639E-01
8.6655209325E-01    8.1976700170E-01    7.7196271003E-01    7.2327787812E-01
6.7386377847E-01    6.2388365412E-01    5.7351187635E-01    5.2293290771E-01
4.7234007891E-01    4.2193419101E-01    3.7192195665E-01    3.2251429709E-01
2.7392451362E-01    2.2636635443E-01    1.8005199962E-01    1.3518998864E-01
9.1983115676E-02    5.0626319556E-02    1.1304595049E-02   -2.5809047109E-02
-6.0555544425E-02   -9.2791644518E-02   -1.2239163897E-01   -1.4924894468E-01
-1.7327750991E-01   -1.9441302392E-01   -2.1261391150E-01   -2.2786209599E-01
-2.4016351719E-01   -2.4954839343E-01   -2.5607122013E-01   -2.5981050049E-01
-2.6086820709E-01   -2.5936897662E-01   -2.5545904342E-01   -2.4930492044E-01
-2.4109183993E-01   -2.3102196878E-01   -2.1931241681E-01   -2.0619305837E-01
-1.9190419093E-01   -1.7669405547E-01   -1.6081624622E-01   -1.4452703834E-01
-1.2808266329E-01   -1.1173656258E-01   -9.5736650872E-02   -8.0322619310E-02
-6.5723309778E-02   -5.2154189662E-02   -3.9814955686E-02   -2.8887293990E-02
-1.9532821365E-02   -1.1895859156E-02   -6.0580152756E-03   -2.1852399306E-03
-3.8373769885E-04    5.4457485469E-05   -7.1394884451E-06   -1.5017084118E-05
3.9338706201E-06    9.1913235352E-08    1.3565002647E-07    0.0000000000E+00
0.0000000000E+00    0.0000000000E+00    0.0000000000E+00    0.0000000000E+00
0. 0. 0. 0.
0. 0. 0. 0.
0. 0. 0. 0.
0. 0. 0. 0.
0. 0. 0. 0.
0. 0. 0. 0.
0. 0. 0. 0.
0. 0. 0. 0.
0. 0. 0. 0.
0. 0. 0. 0.
0. 0. 0. 0.
0. 0. 0. 0.
0. 0. 0. 0.
0. 0. 0. 0.
0. 0. 0. 0.
0. 0. 0. 0.
0. 0. 0. 0.
0. 0. 0. 0.
0. 0. 0. 0.
0. 0. 0. 0.
0. 0. 0. 0.
0. 0. 0. 0.
0. 0. 0. 0.
0. 0. 0. 0.
0. 0. 0. 0.
0. 0. 0. 0.
0. 0. 0. 0.
0. 0. 0. 0.
0. 0. 0. 0.
0. 0. 0. 0.
0. 0. 0. 0.
0. 0. 0. 0.
0. 0. 0. 0.
0. 0. 0. 0.
0. 0. 0. 0.
0. 0. 0. 0.
0. 0. 0. 0.
0. 0. 0. 0.
0. 0. 0. 0.
0. 0. 0. 0.
0. 0. 0. 0.
0. 0. 0. 0.
0. 0. 0. 0.
0. 0. 0. 0.
0. 0. 0. 0.
0. 0. 0. 0.
0. 0. 0. 0.
0. 0. 0. 0.
0. 0. 0. 0.
0. 0. 0. 0.
0. 0. 0. 0.
0. 0. 0. 0.
0. 0. 0. 0.
0. 0. 0. 0.
0. 0. 0. 0.
0. 0. 0. 0.
0. 0. 0. 0.
0. 0. 0. 0.
0. 0. 0. 0.
0. 0. 0. 0.
0. 0. 0. 0.
0. 0. 0. 0.
0. 0. 0. 0.
0. 0. 0. 0.
0. 0. 0. 0.
0. 0. 0. 0.
0. 0. 0. 0.
0. 0. 0. 0.
0. 0. 0. 0.
0. 0. 0. 0.
0. 0. 0. 0.
0. 0. 0. 0.
0. 0. 0. 0.
0. 0. 0. 0.
0. 0. 0. 0.
0. 0. 0. 0.
0. 0. 0. 0.
0. 0. 0. 0.
0. 0. 0. 0.
0. 0. 0. 0.
0. 0. 0. 0.
0. 0. 0. 0.
0. 0. 0. 0.
0. 0. 0. 0.
0. 0. 0. 0.
0. 0. 0. 0.
0. 0. 0. 0.
0. 0. 0. 0.
0. 0. 0. 0.
0. 0. 0. 0.
0. 0. 0. 0.
0. 0. 0. 0.
0. 0. 0. 0.
0. 0. 0. 0.
0. 0. 0. 0.
0. 0. 0. 0.
0. 0. 0. 0.
0. 0. 0. 0.
0. 0. 0. 0.
0. 0. 0. 0.
0. 0. 0. 0.
0. 0. 0. 0.
0. 0. 0. 0.
0. 0. 0. 0.
0. 0. 0. 0.
0. 0. 0. 0.
0. 0. 0. 0.
0. 0. 0. 0.
0. 0. 0. 0.
0. 0. 0. 0.
0. 0. 0. 0.
0. 0. 0. 0.
0. 0. 0. 0.
0. 0. 0. 0.
0. 0. 0. 0.
0. 0. 0. 0.
0. 0. 0. 0.
</PP_BETA.1>
<PP_BETA.2
type="real"
size="600"
columns="4"
index="2"
angular_momentum="0"
cutoff_radius_index=" 132"
cutoff_radius="    1.3100000000E+00" >
6.4314129022E-09   -2.0296643960E-02   -4.0166829845E-02   -5.9191343259E-02
-7.6965343603E-02   -9.3105268711E-02   -1.0725540542E-01   -1.1909402239E-01