<UPF version="2.0.1">
<PP_INFO>
NOTE!!!!
This file is trimmed with a mesh size of 600 from the original version.
Trimming performed at 2023-03-31 09:10:04.972923 by trim_upf.py version 0.1.0

This pseudopotential file has been produced using the code
ONCVPSP  (Optimized Norm-Conservinng Vanderbilt PSeudopotential)
scalar-relativistic version 3.3.0 08/16/2017 by D. R. Hamann
The code is available through a link at URL www.mat-simresearch.com.
Documentation with the package provides a full discription of the
input data below.
While it is not required under the terms of the GNU GPL, it is
suggested that you cite D. R. Hamann, Phys. Rev. B 88, 085117 (2013)
in any publication using these pseudopotentials.
<PP_INPUTFILE>
# ATOM AND REFERENCE CONFIGURATION
# atsym  z   nc   nv     iexc    psfile
Ca 20.00    3    3       4      upf
#
#   n    l    f        energy (Ha)
1    0    2.00
2    0    2.00
2    1    6.00
3    0    2.00
3    1    6.00
4    0    2.00
#
# PSEUDOPOTENTIAL AND OPTIMIZATION
# lmax
2
#
#   l,   rc,      ep,       ncon, nbas, qcut
0   1.45000  -1.73059    4    8   8.20000
1   1.45000  -1.02928    4    8   8.40000
2   1.85000   0.00000    4    8   8.00000
#
# LOCAL POTENTIAL
# lloc, lpopt,  rc(5),   dvloc0
4    5   1.30000      0.00000
#
# VANDERBILT-KLEINMAN-BYLANDER PROJECTORs
# l, nproj, debl
0    2   1.59218
1    2   2.00000
2    2   2.00000
#
# MODEL CORE CHARGE
# icmod, fcfact, rcfact
3   6.00000   1.28000
#
# LOG DERIVATIVE ANALYSIS
# epsh1, epsh2, depsh
-12.00   12.00    0.02
#
# OUTPUT GRID
# rlmax, drl
4.00    0.01
#
# TEST CONFIGURATIONS
# ncnf
0
# nvcnf
#   n    l    f
</PP_INPUTFILE>
</PP_INFO>
<!--                               -->
<!-- END OF HUMAN READABLE SECTION -->
<!--                               -->
<PP_HEADER
generated="Generated using ONCVPSP code by D. R. Hamann"
author="anonymous"
date="171031"
comment=""
element="Ca"
pseudo_type="NC"
relativistic="scalar"
is_ultrasoft="F"
is_paw="F"
is_coulomb="F"
has_so="F"
has_wfc="F"
has_gipaw="F"
core_correction="T"
functional="PBE"
z_valence="   10.00"
total_psenergy="  -7.36497016593E+01"
rho_cutoff="   1.76500000000E+01"
l_max="2"
l_local="-1"
mesh_size="   600"
number_of_wfc="3"
number_of_proj="6"/>
<PP_MESH>
<PP_R type="real"  size="600" columns="8">
0.0000    0.0100    0.0200    0.0300    0.0400    0.0500    0.0600    0.0700
0.0800    0.0900    0.1000    0.1100    0.1200    0.1300    0.1400    0.1500
0.1600    0.1700    0.1800    0.1900    0.2000    0.2100    0.2200    0.2300
0.2400    0.2500    0.2600    0.2700    0.2800    0.2900    0.3000    0.3100
0.3200    0.3300    0.3400    0.3500    0.3600    0.3700    0.3800    0.3900
0.4000    0.4100    0.4200    0.4300    0.4400    0.4500    0.4600    0.4700
0.4800    0.4900    0.5000    0.5100    0.5200    0.5300    0.5400    0.5500
0.5600    0.5700    0.5800    0.5900    0.6000    0.6100    0.6200    0.6300
0.6400    0.6500    0.6600    0.6700    0.6800    0.6900    0.7000    0.7100
0.7200    0.7300    0.7400    0.7500    0.7600    0.7700    0.7800    0.7900
0.8000    0.8100    0.8200    0.8300    0.8400    0.8500    0.8600    0.8700
0.8800    0.8900    0.9000    0.9100    0.9200    0.9300    0.9400    0.9500
0.9600    0.9700    0.9800    0.9900    1.0000    1.0100    1.0200    1.0300
1.0400    1.0500    1.0600    1.0700    1.0800    1.0900    1.1000    1.1100
1.1200    1.1300    1.1400    1.1500    1.1600    1.1700    1.1800    1.1900
1.2000    1.2100    1.2200    1.2300    1.2400    1.2500    1.2600    1.2700
1.2800    1.2900    1.3000    1.3100    1.3200    1.3300    1.3400    1.3500
1.3600    1.3700    1.3800    1.3900    1.4000    1.4100    1.4200    1.4300
1.4400    1.4500    1.4600    1.4700    1.4800    1.4900    1.5000    1.5100
1.5200    1.5300    1.5400    1.5500    1.5600    1.5700    1.5800    1.5900
1.6000    1.6100    1.6200    1.6300    1.6400    1.6500    1.6600    1.6700
1.6800    1.6900    1.7000    1.7100    1.7200    1.7300    1.7400    1.7500
1.7600    1.7700    1.7800    1.7900    1.8000    1.8100    1.8200    1.8300
1.8400    1.8500    1.8600    1.8700    1.8800    1.8900    1.9000    1.9100
1.9200    1.9300    1.9400    1.9500    1.9600    1.9700    1.9800    1.9900
2.0000    2.0100    2.0200    2.0300    2.0400    2.0500    2.0600    2.0700
2.0800    2.0900    2.1000    2.1100    2.1200    2.1300    2.1400    2.1500
2.1600    2.1700    2.1800    2.1900    2.2000    2.2100    2.2200    2.2300
2.2400    2.2500    2.2600    2.2700    2.2800    2.2900    2.3000    2.3100
2.3200    2.3300    2.3400    2.3500    2.3600    2.3700    2.3800    2.3900
2.4000    2.4100    2.4200    2.4300    2.4400    2.4500    2.4600    2.4700
2.4800    2.4900    2.5000    2.5100    2.5200    2.5300    2.5400    2.5500
2.5600    2.5700    2.5800    2.5900    2.6000    2.6100    2.6200    2.6300
2.6400    2.6500    2.6600    2.6700    2.6800    2.6900    2.7000    2.7100
2.7200    2.7300    2.7400    2.7500    2.7600    2.7700    2.7800    2.7900
2.8000    2.8100    2.8200    2.8300    2.8400    2.8500    2.8600    2.8700
2.8800    2.8900    2.9000    2.9100    2.9200    2.9300    2.9400    2.9500
2.9600    2.9700    2.9800    2.9900    3.0000    3.0100    3.0200    3.0300
3.0400    3.0500    3.0600    3.0700    3.0800    3.0900    3.1000    3.1100
3.1200    3.1300    3.1400    3.1500    3.1600    3.1700    3.1800    3.1900
3.2000    3.2100    3.2200    3.2300    3.2400    3.2500    3.2600    3.2700
3.2800    3.2900    3.3000    3.3100    3.3200    3.3300    3.3400    3.3500
3.3600    3.3700    3.3800    3.3900    3.4000    3.4100    3.4200    3.4300
3.4400    3.4500    3.4600    3.4700    3.4800    3.4900    3.5000    3.5100
3.5200    3.5300    3.5400    3.5500    3.5600    3.5700    3.5800    3.5900
3.6000    3.6100    3.6200    3.6300    3.6400    3.6500    3.6600    3.6700
3.6800    3.6900    3.7000    3.7100    3.7200    3.7300    3.7400    3.7500
3.7600    3.7700    3.7800    3.7900    3.8000    3.8100    3.8200    3.8300
3.8400    3.8500    3.8600    3.8700    3.8800    3.8900    3.9000    3.9100
3.9200    3.9300    3.9400    3.9500    3.9600    3.9700    3.9800    3.9900
4.0000    4.0100    4.0200    4.0300    4.0400    4.0500    4.0600    4.0700
4.0800    4.0900    4.1000    4.1100    4.1200    4.1300    4.1400    4.1500
4.1600    4.1700    4.1800    4.1900    4.2000    4.2100    4.2200    4.2300
4.2400    4.2500    4.2600    4.2700    4.2800    4.2900    4.3000    4.3100
4.3200    4.3300    4.3400    4.3500    4.3600    4.3700    4.3800    4.3900
4.4000    4.4100    4.4200    4.4300    4.4400    4.4500    4.4600    4.4700
4.4800    4.4900    4.5000    4.5100    4.5200    4.5300    4.5400    4.5500
4.5600    4.5700    4.5800    4.5900    4.6000    4.6100    4.6200    4.6300
4.6400    4.6500    4.6600    4.6700    4.6800    4.6900    4.7000    4.7100
4.7200    4.7300    4.7400    4.7500    4.7600    4.7700    4.7800    4.7900
4.8000    4.8100    4.8200    4.8300    4.8400    4.8500    4.8600    4.8700
4.8800    4.8900    4.9000    4.9100    4.9200    4.9300    4.9400    4.9500
4.9600    4.9700    4.9800    4.9900    5.0000    5.0100    5.0200    5.0300
5.0400    5.0500    5.0600    5.0700    5.0800    5.0900    5.1000    5.1100
5.1200    5.1300    5.1400    5.1500    5.1600    5.1700    5.1800    5.1900
5.2000    5.2100    5.2200    5.2300    5.2400    5.2500    5.2600    5.2700
5.2800    5.2900    5.3000    5.3100    5.3200    5.3300    5.3400    5.3500
5.3600    5.3700    5.3800    5.3900    5.4000    5.4100    5.4200    5.4300
5.4400    5.4500    5.4600    5.4700    5.4800    5.4900    5.5000    5.5100
5.5200    5.5300    5.5400    5.5500    5.5600    5.5700    5.5800    5.5900
5.6000    5.6100    5.6200    5.6300    5.6400    5.6500    5.6600    5.6700
5.6800    5.6900    5.7000    5.7100    5.7200    5.7300    5.7400    5.7500
5.7600    5.7700    5.7800    5.7900    5.8000    5.8100    5.8200    5.8300
5.8400    5.8500    5.8600    5.8700    5.8800    5.8900    5.9000    5.9100
5.9200    5.9300    5.9400    5.9500    5.9600    5.9700    5.9800    5.9900
</PP_R>
<PP_RAB type="real"  size="600" columns="8">
0.0100    0.0100    0.0100    0.0100    0.0100    0.0100    0.0100    0.0100
0.0100    0.0100    0.0100    0.0100    0.0100    0.0100    0.0100    0.0100
0.0100    0.0100    0.0100    0.0100    0.0100    0.0100    0.0100    0.0100
0.0100    0.0100    0.0100    0.0100    0.0100    0.0100    0.0100    0.0100
0.0100    0.0100    0.0100    0.0100    0.0100    0.0100    0.0100    0.0100
0.0100    0.0100    0.0100    0.0100    0.0100    0.0100    0.0100    0.0100
0.0100    0.0100    0.0100    0.0100    0.0100    0.0100    0.0100    0.0100
0.0100    0.0100    0.0100    0.0100    0.0100    0.0100    0.0100    0.0100
0.0100    0.0100    0.0100    0.0100    0.0100    0.0100    0.0100    0.0100
0.0100    0.0100    0.0100    0.0100    0.0100    0.0100    0.0100    0.0100
0.0100    0.0100    0.0100    0.0100    0.0100    0.0100    0.0100    0.0100
0.0100    0.0100    0.0100    0.0100    0.0100    0.0100    0.0100    0.0100
0.0100    0.0100    0.0100    0.0100    0.0100    0.0100    0.0100    0.0100
0.0100    0.0100    0.0100    0.0100    0.0100    0.0100    0.0100    0.0100
0.0100    0.0100    0.0100    0.0100    0.0100    0.0100    0.0100    0.0100
0.0100    0.0100    0.0100    0.0100    0.0100    0.0100    0.0100    0.0100
0.0100    0.0100    0.0100    0.0100    0.0100    0.0100    0.0100    0.0100
0.0100    0.0100    0.0100    0.0100    0.0100    0.0100    0.0100    0.0100
0.0100    0.0100    0.0100    0.0100    0.0100    0.0100    0.0100    0.0100
0.0100    0.0100    0.0100    0.0100    0.0100    0.0100    0.0100    0.0100
0.0100    0.0100    0.0100    0.0100    0.0100    0.0100    0.0100    0.0100
0.0100    0.0100    0.0100    0.0100    0.0100    0.0100    0.0100    0.0100
0.0100    0.0100    0.0100    0.0100    0.0100    0.0100    0.0100    0.0100
0.0100    0.0100    0.0100    0.0100    0.0100    0.0100    0.0100    0.0100
0.0100    0.0100    0.0100    0.0100    0.0100    0.0100    0.0100    0.0100
0.0100    0.0100    0.0100    0.0100    0.0100    0.0100    0.0100    0.0100
0.0100    0.0100    0.0100    0.0100    0.0100    0.0100    0.0100    0.0100
0.0100    0.0100    0.0100    0.0100    0.0100    0.0100    0.0100    0.0100
0.0100    0.0100    0.0100    0.0100    0.0100    0.0100    0.0100    0.0100
0.0100    0.0100    0.0100    0.0100    0.0100    0.0100    0.0100    0.0100
0.0100    0.0100    0.0100    0.0100    0.0100    0.0100    0.0100    0.0100
0.0100    0.0100    0.0100    0.0100    0.0100    0.0100    0.0100    0.0100
0.0100    0.0100    0.0100    0.0100    0.0100    0.0100    0.0100    0.0100
0.0100    0.0100    0.0100    0.0100    0.0100    0.0100    0.0100    0.0100
0.0100    0.0100    0.0100    0.0100    0.0100    0.0100    0.0100    0.0100
0.0100    0.0100    0.0100    0.0100    0.0100    0.0100    0.0100    0.0100
0.0100    0.0100    0.0100    0.0100    0.0100    0.0100    0.0100    0.0100
0.0100    0.0100    0.0100    0.0100    0.0100    0.0100    0.0100    0.0100
0.0100    0.0100    0.0100    0.0100    0.0100    0.0100    0.0100    0.0100
0.0100    0.0100    0.0100    0.0100    0.0100    0.0100    0.0100    0.0100
0.0100    0.0100    0.0100    0.0100    0.0100    0.0100    0.0100    0.0100
0.0100    0.0100    0.0100    0.0100    0.0100    0.0100    0.0100    0.0100
0.0100    0.0100    0.0100    0.0100    0.0100    0.0100    0.0100    0.0100
0.0100    0.0100    0.0100    0.0100    0.0100    0.0100    0.0100    0.0100
0.0100    0.0100    0.0100    0.0100    0.0100    0.0100    0.0100    0.0100
0.0100    0.0100    0.0100    0.0100    0.0100    0.0100    0.0100    0.0100
0.0100    0.0100    0.0100    0.0100    0.0100    0.0100    0.0100    0.0100
0.0100    0.0100    0.0100    0.0100    0.0100    0.0100    0.0100    0.0100
0.0100    0.0100    0.0100    0.0100    0.0100    0.0100    0.0100    0.0100
0.0100    0.0100    0.0100    0.0100    0.0100    0.0100    0.0100    0.0100
0.0100    0.0100    0.0100    0.0100    0.0100    0.0100    0.0100    0.0100
0.0100    0.0100    0.0100    0.0100    0.0100    0.0100    0.0100    0.0100
0.0100    0.0100    0.0100    0.0100    0.0100    0.0100    0.0100    0.0100
0.0100    0.0100    0.0100    0.0100    0.0100    0.0100    0.0100    0.0100
0.0100    0.0100    0.0100    0.0100    0.0100    0.0100    0.0100    0.0100
0.0100    0.0100    0.0100    0.0100    0.0100    0.0100    0.0100    0.0100
0.0100    0.0100    0.0100    0.0100    0.0100    0.0100    0.0100    0.0100
0.0100    0.0100    0.0100    0.0100    0.0100    0.0100    0.0100    0.0100
0.0100    0.0100    0.0100    0.0100    0.0100    0.0100    0.0100    0.0100
0.0100    0.0100    0.0100    0.0100    0.0100    0.0100    0.0100    0.0100
0.0100    0.0100    0.0100    0.0100    0.0100    0.0100    0.0100    0.0100
0.0100    0.0100    0.0100    0.0100    0.0100    0.0100    0.0100    0.0100
0.0100    0.0100    0.0100    0.0100    0.0100    0.0100    0.0100    0.0100
0.0100    0.0100    0.0100    0.0100    0.0100    0.0100    0.0100    0.0100
0.0100    0.0100    0.0100    0.0100    0.0100    0.0100    0.0100    0.0100
0.0100    0.0100    0.0100    0.0100    0.0100    0.0100    0.0100    0.0100
0.0100    0.0100    0.0100    0.0100    0.0100    0.0100    0.0100    0.0100
0.0100    0.0100    0.0100    0.0100    0.0100    0.0100    0.0100    0.0100
0.0100    0.0100    0.0100    0.0100    0.0100    0.0100    0.0100    0.0100
0.0100    0.0100    0.0100    0.0100    0.0100    0.0100    0.0100    0.0100
0.0100    0.0100    0.0100    0.0100    0.0100    0.0100    0.0100    0.0100
0.0100    0.0100    0.0100    0.0100    0.0100    0.0100    0.0100    0.0100
0.0100    0.0100    0.0100    0.0100    0.0100    0.0100    0.0100    0.0100
0.0100    0.0100    0.0100    0.0100    0.0100    0.0100    0.0100    0.0100
0.0100    0.0100    0.0100    0.0100    0.0100    0.0100    0.0100    0.0100
</PP_RAB>
</PP_MESH>
<PP_LOCAL type="real"  size="600" columns="4">
-3.1444920531E+01   -3.1443489461E+01   -3.1439198589E+01   -3.1432054921E+01
-3.1422069970E+01   -3.1409259534E+01   -3.1393643381E+01   -3.1375244873E+01
-3.1354090521E+01   -3.1330209505E+01   -3.1303633160E+01   -3.1274394439E+01
-3.1242527382E+01   -3.1208066595E+01   -3.1171046743E+01   -3.1131502084E+01
-3.1089466039E+01   -3.1044970802E+01   -3.0998047009E+01   -3.0948723452E+01
-3.0897026841E+01   -3.0842981624E+01   -3.0786609847E+01   -3.0727931064E+01
-3.0666962279E+01   -3.0603717927E+01   -3.0538209892E+01   -3.0470447535E+01
-3.0400437760E+01   -3.0328185085E+01   -3.0253691732E+01   -3.0176957728E+01
-3.0097981010E+01   -3.0016757539E+01   -2.9933281419E+01   -2.9847545014E+01
-2.9759539077E+01   -2.9669252874E+01   -2.9576674314E+01   -2.9481790079E+01
-2.9384585768E+01   -2.9285046029E+01   -2.9183154707E+01   -2.9078894992E+01
-2.8972249572E+01   -2.8863200789E+01   -2.8751730803E+01   -2.8637821760E+01
-2.8521455964E+01   -2.8402616061E+01   -2.8281285233E+01   -2.8157447412E+01
-2.8031087505E+01   -2.7902191667E+01   -2.7770747595E+01   -2.7636744885E+01
-2.7500175440E+01   -2.7361033955E+01   -2.7219318477E+01   -2.7075031042E+01
-2.6928178398E+01   -2.6778772793E+01   -2.6626832814E+01   -2.6472384248E+01
-2.6315460927E+01   -2.6156105505E+01   -2.5994370130E+01   -2.5830316933E+01
-2.5664018307E+01   -2.5495556915E+01   -2.5325025416E+01   -2.5152525882E+01
-2.4978168939E+01   -2.4802072643E+01   -2.4624361165E+01   -2.4445163343E+01
-2.4264611183E+01   -2.4082838388E+01   -2.3899978987E+01   -2.3716166131E+01
-2.3531531097E+01   -2.3346202525E+01   -2.3160305895E+01   -2.2973963238E+01
-2.2787293043E+01   -2.2600410344E+01   -2.2413426929E+01   -2.2226451643E+01
-2.2039590731E+01   -2.1852948200E+01   -2.1666626162E+01   -2.1480725131E+01
-2.1295344261E+01   -2.1110581511E+01   -2.0926533737E+01   -2.0743296692E+01
-2.0560964964E+01   -2.0379631829E+01   -2.0199389049E+01   -2.0020326620E+01
-1.9842532471E+01   -1.9666092145E+01   -1.9491088458E+01   -1.9317601159E+01
-1.9145706590E+01   -1.8975477375E+01   -1.8806982116E+01   -1.8640285133E+01
-1.8475446232E+01   -1.8312520506E+01   -1.8151558183E+01   -1.7992604497E+01
-1.7835699609E+01   -1.7680878549E+01   -1.7528171190E+01   -1.7377602255E+01
-1.7229191337E+01   -1.7082952940E+01   -1.6938896543E+01   -1.6797026662E+01
-1.6657342934E+01   -1.6519840197E+01   -1.6384508576E+01   -1.6251333579E+01
-1.6120296175E+01   -1.5991372885E+01   -1.5864535866E+01   -1.5739752980E+01
-1.5616987882E+01   -1.5496200049E+01   -1.5377345001E+01   -1.5260373840E+01
-1.5145234253E+01   -1.5031872693E+01   -1.4920236461E+01   -1.4810274979E+01
-1.4701939309E+01   -1.4595182328E+01   -1.4489958756E+01   -1.4386225192E+01
-1.4283940113E+01   -1.4183064086E+01   -1.4083559376E+01   -1.3985390187E+01
-1.3888522016E+01   -1.3792924504E+01   -1.3698576938E+01   -1.3605468218E+01
-1.3513598407E+01   -1.3422958347E+01   -1.3333521792E+01   -1.3245260546E+01
-1.3158148007E+01   -1.3072163018E+01   -1.2987287564E+01   -1.2903500334E+01
-1.2820780329E+01   -1.2739108337E+01   -1.2658465583E+01   -1.2578833542E+01
-1.2500194174E+01   -1.2422529880E+01   -1.2345823439E+01   -1.2270057987E+01
-1.2195216997E+01   -1.2121284256E+01   -1.2048243855E+01   -1.1976080173E+01
-1.1904777864E+01   -1.1834321857E+01   -1.1764697346E+01   -1.1695889790E+01
-1.1627884909E+01   -1.1560668689E+01   -1.1494227379E+01   -1.1428547495E+01
-1.1363615824E+01   -1.1299419422E+01   -1.1235945621E+01   -1.1173182026E+01
-1.1111116520E+01   -1.1049737263E+01   -1.0989032686E+01   -1.0928991497E+01
-1.0869602674E+01   -1.0810855459E+01   -1.0752739357E+01   -1.0695244125E+01
-1.0638359772E+01   -1.0582076544E+01   -1.0526384921E+01   -1.0471275608E+01
-1.0416739523E+01   -1.0362767793E+01   -1.0309351742E+01   -1.0256482882E+01
-1.0204152909E+01   -1.0152353689E+01   -1.0101077259E+01   -1.0050315810E+01
-1.0000061691E+01   -9.9503073960E+00   -9.9010455632E+00   -9.8522689692E+00
-9.8039705255E+00   -9.7561432750E+00   -9.7087803899E+00   -9.6618751683E+00
-9.6154210328E+00   -9.5694115282E+00   -9.5238403198E+00   -9.4787011914E+00
-9.4339880437E+00   -9.3896948925E+00   -9.3458158665E+00   -9.3023452052E+00
-9.2592772565E+00   -9.2166064740E+00   -9.1743274143E+00   -9.1324347340E+00
-9.0909231863E+00   -9.0497876178E+00   -9.0090229652E+00   -8.9686242516E+00
-8.9285865834E+00   -8.8889051470E+00   -8.8495752057E+00   -8.8105920972E+00
-8.7719512304E+00   -8.7336480854E+00   -8.6956782270E+00   -8.6580372551E+00
-8.6207208026E+00   -8.5837244645E+00   -8.5470443681E+00   -8.5106766835E+00
-8.4746178494E+00   -8.4388623227E+00   -8.4034049099E+00   -8.3682405302E+00
-8.3333674800E+00   -8.2987839369E+00   -8.2644880190E+00   -8.2304758564E+00
-8.1967436485E+00   -8.1632874577E+00   -8.1301036309E+00   -8.0971884310E+00
-8.0645383896E+00   -8.0321504065E+00   -8.0000215019E+00   -7.9681486722E+00
-7.9365288128E+00   -7.9051588924E+00   -7.8740359416E+00   -7.8431570686E+00
-7.8125194140E+00   -7.7821201628E+00   -7.7519565420E+00   -7.7220258227E+00
-7.6923253181E+00   -7.6628523828E+00   -7.6336044121E+00   -7.6045788412E+00
-7.5757731442E+00   -7.5471848337E+00   -7.5188114598E+00   -7.4906506093E+00
-7.4626999053E+00   -7.4349570064E+00   -7.4074196056E+00   -7.3800854302E+00
-7.3529522411E+00   -7.3260178315E+00   -7.2992800272E+00   -7.2727366852E+00
-7.2463856938E+00   -7.2202249713E+00   -7.1942524661E+00   -7.1684661557E+00
-7.1428640463E+00   -7.1174441726E+00   -7.0922045967E+00   -7.0671434080E+00
-7.0422587229E+00   -7.0175486837E+00   -6.9930114587E+00   -6.9686452417E+00
-6.9444482514E+00   -6.9204187309E+00   -6.8965549476E+00   -6.8728551925E+00
-6.8493177800E+00   -6.8259410476E+00   -6.8027233549E+00   -6.7796630842E+00
-6.7567586394E+00   -6.7340084458E+00   -6.7114109499E+00   -6.6889646191E+00
-6.6666679409E+00   -6.6445194233E+00   -6.6225175937E+00   -6.6006609993E+00
-6.5789482061E+00   -6.5573777992E+00   -6.5359483820E+00   -6.5146585762E+00
-6.4935070216E+00   -6.4724923754E+00   -6.4516133122E+00   -6.4308685237E+00
-6.4102567184E+00   -6.3897766213E+00   -6.3694269738E+00   -6.3492065331E+00
-6.3291140724E+00   -6.3091483801E+00   -6.2893082601E+00   -6.2695925313E+00
-6.2500000272E+00   -6.2305295961E+00   -6.2111801004E+00   -6.1919504167E+00
-6.1728394357E+00   -6.1538460613E+00   -6.1349692112E+00   -6.1162078164E+00
-6.0975608206E+00   -6.0790271808E+00   -6.0606058662E+00   -6.0422958588E+00
-6.0240961528E+00   -6.0060057544E+00   -5.9880236817E+00   -5.9701489647E+00
-5.9523806448E+00   -5.9347177747E+00   -5.9171594186E+00   -5.8997046515E+00
-5.8823525594E+00   -5.8651022390E+00   -5.8479527975E+00   -5.8309033526E+00
-5.8139530322E+00   -5.7971009744E+00   -5.7803463272E+00   -5.7636882485E+00
-5.7471259057E+00   -5.7306584758E+00   -5.7142851455E+00   -5.6980051104E+00
-5.6818175753E+00   -5.6657217542E+00   -5.6497168698E+00   -5.6338021537E+00
-5.6179768460E+00   -5.6022401954E+00   -5.5865914589E+00   -5.5710299020E+00
-5.5555547981E+00   -5.5401654288E+00   -5.5248610835E+00   -5.5096410597E+00
-5.4945046623E+00   -5.4794512040E+00   -5.4644800051E+00   -5.4495903930E+00
-5.4347817027E+00   -5.4200532763E+00   -5.4054044629E+00   -5.3908346189E+00
-5.3763431074E+00   -5.3619292984E+00   -5.3475925685E+00   -5.3333323013E+00
-5.3191478865E+00   -5.3050387206E+00   -5.2910042063E+00   -5.2770437529E+00
-5.2631567755E+00   -5.2493426957E+00   -5.2356009410E+00   -5.2219309447E+00
-5.2083321464E+00   -5.1948039912E+00   -5.1813459302E+00   -5.1679574198E+00
-5.1546379224E+00   -5.1413869058E+00   -5.1282038432E+00   -5.1150882131E+00
-5.1020394995E+00   -5.0890571917E+00   -5.0761407839E+00   -5.0632897757E+00
-5.0505036716E+00   -5.0377819812E+00   -5.0251242190E+00   -5.0125299042E+00
-4.9999985610E+00   -4.9875297184E+00   -4.9751229098E+00   -4.9627776736E+00
-4.9504935524E+00   -4.9382700936E+00   -4.9261068490E+00   -4.9140033746E+00
-4.9019592311E+00   -4.8899739832E+00   -4.8780472000E+00   -4.8661784547E+00
-4.8543673247E+00   -4.8426133916E+00   -4.8309162408E+00   -4.8192754619E+00
-4.8076906484E+00   -4.7961613976E+00   -4.7846873107E+00   -4.7732679928E+00
-4.7619030527E+00   -4.7505921029E+00   -4.7393347596E+00   -4.7281306426E+00
-4.7169793752E+00   -4.7058805845E+00   -4.6948339009E+00   -4.6838389583E+00
-4.6728953940E+00   -4.6620028488E+00   -4.6511609666E+00   -4.6403693950E+00
-4.6296277844E+00   -4.6189357887E+00   -4.6082930650E+00   -4.5976992735E+00
-4.5871540775E+00   -4.5766571434E+00   -4.5662081406E+00   -4.5558067415E+00
-4.5454526217E+00   -4.5351454595E+00   -4.5248849361E+00   -4.5146707358E+00
-4.5045025455E+00   -4.4943800551E+00   -4.4843029572E+00   -4.4742709471E+00
-4.4642837229E+00   -4.4543409853E+00   -4.4444424379E+00   -4.4345877866E+00
-4.4247767402E+00   -4.4150090097E+00   -4.4052843091E+00   -4.3956023546E+00
-4.3859628649E+00   -4.3763655614E+00   -4.3668101677E+00   -4.3572964098E+00
-4.3478240163E+00   -4.3383927180E+00   -4.3290022479E+00   -4.3196523416E+00
-4.3103427369E+00   -4.3010731736E+00   -4.2918433941E+00   -4.2826531427E+00
-4.2735021660E+00   -4.2643902130E+00   -4.2553170344E+00   -4.2462823833E+00
-4.2372860148E+00   -4.2283276861E+00   -4.2194071565E+00   -4.2105241872E+00
-4.2016785415E+00   -4.1928699846E+00   -4.1840982839E+00   -4.1753632085E+00
-4.1666645293E+00   -4.1580020196E+00   -4.1493754541E+00   -4.1407846095E+00
-4.1322292645E+00   -4.1237091996E+00   -4.1152241968E+00   -4.1067740402E+00
-4.0983585157E+00   -4.0899774106E+00   -4.0816305144E+00   -4.0733176180E+00
-4.0650385140E+00   -4.0567929969E+00   -4.0485808627E+00   -4.0404019090E+00
-4.0322559352E+00   -4.0241427421E+00   -4.0160621324E+00   -4.0080139101E+00
-3.9999978809E+00   -3.9920138521E+00   -3.9840616323E+00   -3.9761410319E+00
-3.9682518626E+00   -3.9603939378E+00   -3.9525670722E+00   -3.9447710819E+00
-3.9370057848E+00   -3.9292709998E+00   -3.9215665476E+00   -3.9138922499E+00
-3.9062479301E+00   -3.8986334130E+00   -3.8910485245E+00   -3.8834930921E+00
-3.8759669445E+00   -3.8684699118E+00   -3.8610018253E+00   -3.8535625178E+00
-3.8461518232E+00   -3.8387695767E+00   -3.8314156148E+00   -3.8240897754E+00
-3.8167918973E+00   -3.8095218209E+00   -3.8022793875E+00   -3.7950644398E+00
-3.7878768215E+00   -3.7807163779E+00   -3.7735829549E+00   -3.7664763999E+00
-3.7593965615E+00   -3.7523432892E+00   -3.7453164338E+00   -3.7383158472E+00
-3.7313413823E+00   -3.7243928932E+00   -3.7174702351E+00   -3.7105732642E+00
-3.7037018377E+00   -3.6968558140E+00   -3.6900350526E+00   -3.6832394138E+00
-3.6764687590E+00   -3.6697229509E+00   -3.6630018527E+00   -3.6563053291E+00
-3.6496332455E+00   -3.6429854682E+00   -3.6363618649E+00   -3.6297623037E+00
-3.6231866541E+00   -3.6166347864E+00   -3.6101065716E+00   -3.6036018821E+00
-3.5971205909E+00   -3.5906625718E+00   -3.5842276999E+00   -3.5778158508E+00
-3.5714269013E+00   -3.5650607289E+00   -3.5587172120E+00   -3.5523962298E+00
-3.5460976625E+00   -3.5398213911E+00   -3.5335672975E+00   -3.5273352641E+00
-3.5211251746E+00   -3.5149369133E+00   -3.5087703652E+00   -3.5026254163E+00
-3.4965019532E+00   -3.4903998636E+00   -3.4843190356E+00   -3.4782593584E+00
-3.4722207218E+00   -3.4662030163E+00   -3.4602061334E+00   -3.4542299652E+00
-3.4482744044E+00   -3.4423393448E+00   -3.4364246805E+00   -3.4305303068E+00
-3.4246561193E+00   -3.4188020145E+00   -3.4129678895E+00   -3.4071536424E+00
-3.4013591716E+00   -3.3955843765E+00   -3.3898291569E+00   -3.3840934136E+00
-3.3783770478E+00   -3.3726799614E+00   -3.3670020572E+00   -3.3613432384E+00
-3.3557034089E+00   -3.3500824732E+00   -3.3444803367E+00   -3.3388969051E+00
</PP_LOCAL>
<PP_NONLOCAL>
<PP_BETA.1
type="real"
size="600"
columns="4"
index="1"
angular_momentum="0"
cutoff_radius_index=" 192"
cutoff_radius="    1.9100000000E+00" >
-3.4656155723E-10    7.0845407220E-02    1.4153261707E-01    2.1190411575E-01
2.8180375004E-01    3.5107739133E-01    4.1957358036E-01    4.8714414674E-01
5.5364479741E-01    6.1893566907E-01    6.8288183952E-01    7.4535379402E-01
8.0622784289E-01    8.6538648753E-01    9.2271873265E-01    9.7812034318E-01
1.0314940452E+00    1.0827496709E+00    1.1318042479E+00    1.1785820356E+00
1.2230145092E+00    1.2650402950E+00    1.3046050611E+00    1.3416613663E+00
1.3761684724E+00    1.4080921251E+00    1.4374043080E+00    1.4640829761E+00
1.4881117746E+00    1.5094797473E+00    1.5281810433E+00    1.5442146242E+00
1.5575839811E+00    1.5682968631E+00    1.5763650250E+00    1.5818039971E+00
1.5846328818E+00    1.5848741793E+00    1.5825536469E+00    1.5777001922E+00
1.5703458021E+00    1.5605255088E+00    1.5482773913E+00    1.5336426127E+00
1.5166654899E+00    1.4973935954E+00    1.4758778852E+00    1.4521728521E+00
1.4263366961E+00    1.3984315108E+00    1.3685234765E+00    1.3366830571E+00
1.3029851928E+00    1.2675094818E+00    1.2303403468E+00    1.1915671767E+00
1.1512844391E+00    1.1095917567E+00    1.0665939421E+00    1.0224009841E+00
9.7712798320E-01    9.3089502930E-01    8.8382701947E-01    8.3605341278E-01
7.8770791997E-01    7.3892812706E-01    6.8985505287E-01    6.4063264114E-01
5.9140718940E-01    5.4232671726E-01    4.9354027821E-01    4.4519721963E-01
3.9744639685E-01    3.5043534800E-01    3.0430943686E-01    2.5921097218E-01
2.1527831197E-01    1.7264496223E-01    1.3143867976E-01    9.1780589012E-02
5.3784323173E-02    1.7555199527E-02   -1.6810560790E-02   -4.9226558939E-02
-7.9616881033E-02   -1.0791668846E-01   -1.3407272772E-01   -1.5804375228E-01
-1.7980085005E-01   -1.9932767086E-01   -2.1662054955E-01   -2.3168852131E-01
-2.4455322740E-01   -2.5524871022E-01   -2.6382109841E-01   -2.7032818378E-01
-2.7483889317E-01   -2.7743265967E-01   -2.7819869889E-01   -2.7723519712E-01
-2.7464841930E-01   -2.7055174586E-01   -2.6506464828E-01   -2.5831161401E-01
-2.5042103224E-01   -2.4152405225E-01   -2.3175342659E-01   -2.2124235170E-01
-2.1012331817E-01   -1.9852698334E-01   -1.8658107809E-01   -1.7440935960E-01
-1.6213062108E-01   -1.4985776879E-01   -1.3769697570E-01   -1.2574692029E-01
-1.1409811761E-01   -1.0283234853E-01   -9.2022192031E-02   -8.1730663704E-02
-7.2010962088E-02   -6.2906323256E-02   -5.4449982669E-02   -4.6665241308E-02
-3.9565631806E-02   -3.3155179637E-02   -2.7428751854E-02   -2.2372483749E-02
-1.7964283699E-02   -1.4174373317E-02   -1.0965984283E-02   -8.2957184365E-03
-6.1147463025E-03   -4.3706769898E-03   -3.0096399996E-03   -1.9779762946E-03
-1.2230312363E-03   -6.9423792216E-04   -3.4408474189E-04   -1.2903203550E-04
-1.0347151403E-05    4.5182235613E-05    6.4471367419E-05    6.6576733336E-05
6.7240339127E-05    7.6577706870E-05    6.8934868155E-05    2.6007086755E-05
-5.8793642704E-06   -4.3226696549E-06    1.6082329842E-06    5.3942458161E-07
-2.0440114018E-07   -4.9714554031E-09    0.0000000000E+00    0.0000000000E+00
0.0000000000E+00    0.0000000000E+00    0.0000000000E+00    0.0000000000E+00
0.0000000000E+00    0.0000000000E+00    0.0000000000E+00    0.0000000000E+00
0.0000000000E+00    0.0000000000E+00    0.0000000000E+00    0.0000000000E+00
0.0000000000E+00    0.0000000000E+00    0.0000000000E+00    0.0000000000E+00
0.0000000000E+00    0.0000000000E+00    0.0000000000E+00    0.0000000000E+00
0.0000000000E+00    0.0000000000E+00    0.0000000000E+00    0.0000000000E+00
0.0000000000E+00    0.0000000000E+00    0.0000000000E+00    0.0000000000E+00
0.0000000000E+00    0.0000000000E+00    0.0000000000E+00    0.0000000000E+00
0.0000000000E+00    0.0000000000E+00    0.0000000000E+00    0.0000000000E+00
0. 0. 0. 0.
0. 0. 0. 0.
0. 0. 0. 0.
0. 0. 0. 0.
0. 0. 0. 0.
0. 0. 0. 0.
0. 0. 0. 0.
0. 0. 0. 0.
0. 0. 0. 0.
0. 0. 0. 0.
0. 0. 0. 0.
0. 0. 0. 0.
0. 0. 0. 0.
0. 0. 0. 0.
0. 0. 0. 0.
0. 0. 0. 0.
0. 0. 0. 0.
0. 0. 0. 0.
0. 0. 0. 0.
0. 0. 0. 0.
0. 0. 0. 0.
0. 0. 0. 0.
0. 0. 0. 0.
0. 0. 0. 0.
0. 0. 0. 0.
0. 0. 0. 0.
0. 0. 0. 0.
0. 0. 0. 0.
0. 0. 0. 0.
0. 0. 0. 0.
0. 0. 0. 0.
0. 0. 0. 0.
0. 0. 0. 0.
0. 0. 0. 0.
0. 0. 0. 0.
0. 0. 0. 0.
0. 0. 0. 0.
0. 0. 0. 0.
0. 0. 0. 0.