<UPF version="2.0.1">
<PP_INFO>
NOTE!!!!
This file is trimmed with a mesh size of 600 from the original version.
Trimming performed at 2023-03-31 09:10:04.999325 by trim_upf.py version 0.1.0

This pseudopotential file has been produced using the code
ONCVPSP  (Optimized Norm-Conservinng Vanderbilt PSeudopotential)
scalar-relativistic version 3.3.0 08/16/2017 by D. R. Hamann
The code is available through a link at URL www.mat-simresearch.com.
Documentation with the package provides a full discription of the
input data below.
While it is not required under the terms of the GNU GPL, it is
suggested that you cite D. R. Hamann, Phys. Rev. B 88, 085117 (2013)
in any publication using these pseudopotentials.
<PP_INPUTFILE>
# ATOM AND REFERENCE CONFIGURATION
# atsym  z   nc   nv     iexc    psfile
Cl 17.00    3    2       4      upf
#
#   n    l    f        energy (Ha)
1    0    2.00
2    0    2.00
2    1    6.00
3    0    2.00
3    1    5.00
#
# PSEUDOPOTENTIAL AND OPTIMIZATION
# lmax
2
#
#   l,   rc,      ep,       ncon, nbas, qcut
0   1.55000  -0.76042    4    9   6.80000
1   1.35000  -0.31587    4    8   8.00000
2   1.75000   0.10000    4    9   6.80000
#
# LOCAL POTENTIAL
# lloc, lpopt,  rc(5),   dvloc0
4    5   1.30000      0.00000
#
# VANDERBILT-KLEINMAN-BYLANDER PROJECTORs
# l, nproj, debl
0    2   2.00000
1    2   2.00000
2    2   1.50000
#
# MODEL CORE CHARGE
# icmod, fcfact, rcfact
3   8.00000   1.23000
#
# LOG DERIVATIVE ANALYSIS
# epsh1, epsh2, depsh
-15.00   12.00    0.02
#
# OUTPUT GRID
# rlmax, drl
6.00    0.01
#
# TEST CONFIGURATIONS
# ncnf
0
# nvcnf
#   n    l    f
</PP_INPUTFILE>
</PP_INFO>
<!--                               -->
<!-- END OF HUMAN READABLE SECTION -->
<!--                               -->
<PP_HEADER
generated="Generated using ONCVPSP code by D. R. Hamann"
author="anonymous"
date="171031"
comment=""
element="Cl"
pseudo_type="NC"
relativistic="scalar"
is_ultrasoft="F"
is_paw="F"
is_coulomb="F"
has_so="F"
has_wfc="F"
has_gipaw="F"
core_correction="T"
functional="PBE"
z_valence="    7.00"
total_psenergy="  -2.99399782839E+01"
rho_cutoff="   1.02700000000E+01"
l_max="2"
l_local="-1"
mesh_size="   600"
number_of_wfc="2"
number_of_proj="6"/>
<PP_MESH>
<PP_R type="real"  size="600" columns="8">
0.0000    0.0100    0.0200    0.0300    0.0400    0.0500    0.0600    0.0700
0.0800    0.0900    0.1000    0.1100    0.1200    0.1300    0.1400    0.1500
0.1600    0.1700    0.1800    0.1900    0.2000    0.2100    0.2200    0.2300
0.2400    0.2500    0.2600    0.2700    0.2800    0.2900    0.3000    0.3100
0.3200    0.3300    0.3400    0.3500    0.3600    0.3700    0.3800    0.3900
0.4000    0.4100    0.4200    0.4300    0.4400    0.4500    0.4600    0.4700
0.4800    0.4900    0.5000    0.5100    0.5200    0.5300    0.5400    0.5500
0.5600    0.5700    0.5800    0.5900    0.6000    0.6100    0.6200    0.6300
0.6400    0.6500    0.6600    0.6700    0.6800    0.6900    0.7000    0.7100
0.7200    0.7300    0.7400    0.7500    0.7600    0.7700    0.7800    0.7900
0.8000    0.8100    0.8200    0.8300    0.8400    0.8500    0.8600    0.8700
0.8800    0.8900    0.9000    0.9100    0.9200    0.9300    0.9400    0.9500
0.9600    0.9700    0.9800    0.9900    1.0000    1.0100    1.0200    1.0300
1.0400    1.0500    1.0600    1.0700    1.0800    1.0900    1.1000    1.1100
1.1200    1.1300    1.1400    1.1500    1.1600    1.1700    1.1800    1.1900
1.2000    1.2100    1.2200    1.2300    1.2400    1.2500    1.2600    1.2700
1.2800    1.2900    1.3000    1.3100    1.3200    1.3300    1.3400    1.3500
1.3600    1.3700    1.3800    1.3900    1.4000    1.4100    1.4200    1.4300
1.4400    1.4500    1.4600    1.4700    1.4800    1.4900    1.5000    1.5100
1.5200    1.5300    1.5400    1.5500    1.5600    1.5700    1.5800    1.5900
1.6000    1.6100    1.6200    1.6300    1.6400    1.6500    1.6600    1.6700
1.6800    1.6900    1.7000    1.7100    1.7200    1.7300    1.7400    1.7500
1.7600    1.7700    1.7800    1.7900    1.8000    1.8100    1.8200    1.8300
1.8400    1.8500    1.8600    1.8700    1.8800    1.8900    1.9000    1.9100
1.9200    1.9300    1.9400    1.9500    1.9600    1.9700    1.9800    1.9900
2.0000    2.0100    2.0200    2.0300    2.0400    2.0500    2.0600    2.0700
2.0800    2.0900    2.1000    2.1100    2.1200    2.1300    2.1400    2.1500
2.1600    2.1700    2.1800    2.1900    2.2000    2.2100    2.2200    2.2300
2.2400    2.2500    2.2600    2.2700    2.2800    2.2900    2.3000    2.3100
2.3200    2.3300    2.3400    2.3500    2.3600    2.3700    2.3800    2.3900
2.4000    2.4100    2.4200    2.4300    2.4400    2.4500    2.4600    2.4700
2.4800    2.4900    2.5000    2.5100    2.5200    2.5300    2.5400    2.5500
2.5600    2.5700    2.5800    2.5900    2.6000    2.6100    2.6200    2.6300
2.6400    2.6500    2.6600    2.6700    2.6800    2.6900    2.7000    2.7100
2.7200    2.7300    2.7400    2.7500    2.7600    2.7700    2.7800    2.7900
2.8000    2.8100    2.8200    2.8300    2.8400    2.8500    2.8600    2.8700
2.8800    2.8900    2.9000    2.9100    2.9200    2.9300    2.9400    2.9500
2.9600    2.9700    2.9800    2.9900    3.0000    3.0100    3.0200    3.0300
3.0400    3.0500    3.0600    3.0700    3.0800    3.0900    3.1000    3.1100
3.1200    3.1300    3.1400    3.1500    3.1600    3.1700    3.1800    3.1900
3.2000    3.2100    3.2200    3.2300    3.2400    3.2500    3.2600    3.2700
3.2800    3.2900    3.3000    3.3100    3.3200    3.3300    3.3400    3.3500
3.3600    3.3700    3.3800    3.3900    3.4000    3.4100    3.4200    3.4300
3.4400    3.4500    3.4600    3.4700    3.4800    3.4900    3.5000    3.5100
3.5200    3.5300    3.5400    3.5500    3.5600    3.5700    3.5800    3.5900
3.6000    3.6100    3.6200    3.6300    3.6400    3.6500    3.6600    3.6700
3.6800    3.6900    3.7000    3.7100    3.7200    3.7300    3.7400    3.7500
3.7600    3.7700    3.7800    3.7900    3.8000    3.8100    3.8200    3.8300
3.8400    3.8500    3.8600    3.8700    3.8800    3.8900    3.9000    3.9100
3.9200    3.9300    3.9400    3.9500    3.9600    3.9700    3.9800    3.9900
4.0000    4.0100    4.0200    4.0300    4.0400    4.0500    4.0600    4.0700
4.0800    4.0900    4.1000    4.1100    4.1200    4.1300    4.1400    4.1500
4.1600    4.1700    4.1800    4.1900    4.2000    4.2100    4.2200    4.2300
4.2400    4.2500    4.2600    4.2700    4.2800    4.2900    4.3000    4.3100
4.3200    4.3300    4.3400    4.3500    4.3600    4.3700    4.3800    4.3900
4.4000    4.4100    4.4200    4.4300    4.4400    4.4500    4.4600    4.4700
4.4800    4.4900    4.5000    4.5100    4.5200    4.5300    4.5400    4.5500
4.5600    4.5700    4.5800    4.5900    4.6000    4.6100    4.6200    4.6300
4.6400    4.6500    4.6600    4.6700    4.6800    4.6900    4.7000    4.7100
4.7200    4.7300    4.7400    4.7500    4.7600    4.7700    4.7800    4.7900
4.8000    4.8100    4.8200    4.8300    4.8400    4.8500    4.8600    4.8700
4.8800    4.8900    4.9000    4.9100    4.9200    4.9300    4.9400    4.9500
4.9600    4.9700    4.9800    4.9900    5.0000    5.0100    5.0200    5.0300
5.0400    5.0500    5.0600    5.0700    5.0800    5.0900    5.1000    5.1100
5.1200    5.1300    5.1400    5.1500    5.1600    5.1700    5.1800    5.1900
5.2000    5.2100    5.2200    5.2300    5.2400    5.2500    5.2600    5.2700
5.2800    5.2900    5.3000    5.3100    5.3200    5.3300    5.3400    5.3500
5.3600    5.3700    5.3800    5.3900    5.4000    5.4100    5.4200    5.4300
5.4400    5.4500    5.4600    5.4700    5.4800    5.4900    5.5000    5.5100
5.5200    5.5300    5.5400    5.5500    5.5600    5.5700    5.5800    5.5900
5.6000    5.6100    5.6200    5.6300    5.6400    5.6500    5.6600    5.6700
5.6800    5.6900    5.7000    5.7100    5.7200    5.7300    5.7400    5.7500
5.7600    5.7700    5.7800    5.7900    5.8000    5.8100    5.8200    5.8300
5.8400    5.8500    5.8600    5.8700    5.8800    5.8900    5.9000    5.9100
5.9200    5.9300    5.9400    5.9500    5.9600    5.9700    5.9800    5.9900
</PP_R>
<PP_RAB type="real"  size="600" columns="8">
0.0100    0.0100    0.0100    0.0100    0.0100    0.0100    0.0100    0.0100
0.0100    0.0100    0.0100    0.0100    0.0100    0.0100    0.0100    0.0100
0.0100    0.0100    0.0100    0.0100    0.0100    0.0100    0.0100    0.0100
0.0100    0.0100    0.0100    0.0100    0.0100    0.0100    0.0100    0.0100
0.0100    0.0100    0.0100    0.0100    0.0100    0.0100    0.0100    0.0100
0.0100    0.0100    0.0100    0.0100    0.0100    0.0100    0.0100    0.0100
0.0100    0.0100    0.0100    0.0100    0.0100    0.0100    0.0100    0.0100
0.0100    0.0100    0.0100    0.0100    0.0100    0.0100    0.0100    0.0100
0.0100    0.0100    0.0100    0.0100    0.0100    0.0100    0.0100    0.0100
0.0100    0.0100    0.0100    0.0100    0.0100    0.0100    0.0100    0.0100
0.0100    0.0100    0.0100    0.0100    0.0100    0.0100    0.0100    0.0100
0.0100    0.0100    0.0100    0.0100    0.0100    0.0100    0.0100    0.0100
0.0100    0.0100    0.0100    0.0100    0.0100    0.0100    0.0100    0.0100
0.0100    0.0100    0.0100    0.0100    0.0100    0.0100    0.0100    0.0100
0.0100    0.0100    0.0100    0.0100    0.0100    0.0100    0.0100    0.0100
0.0100    0.0100    0.0100    0.0100    0.0100    0.0100    0.0100    0.0100
0.0100    0.0100    0.0100    0.0100    0.0100    0.0100    0.0100    0.0100
0.0100    0.0100    0.0100    0.0100    0.0100    0.0100    0.0100    0.0100
0.0100    0.0100    0.0100    0.0100    0.0100    0.0100    0.0100    0.0100
0.0100    0.0100    0.0100    0.0100    0.0100    0.0100    0.0100    0.0100
0.0100    0.0100    0.0100    0.0100    0.0100    0.0100    0.0100    0.0100
0.0100    0.0100    0.0100    0.0100    0.0100    0.0100    0.0100    0.0100
0.0100    0.0100    0.0100    0.0100    0.0100    0.0100    0.0100    0.0100
0.0100    0.0100    0.0100    0.0100    0.0100    0.0100    0.0100    0.0100
0.0100    0.0100    0.0100    0.0100    0.0100    0.0100    0.0100    0.0100
0.0100    0.0100    0.0100    0.0100    0.0100    0.0100    0.0100    0.0100
0.0100    0.0100    0.0100    0.0100    0.0100    0.0100    0.0100    0.0100
0.0100    0.0100    0.0100    0.0100    0.0100    0.0100    0.0100    0.0100
0.0100    0.0100    0.0100    0.0100    0.0100    0.0100    0.0100    0.0100
0.0100    0.0100    0.0100    0.0100    0.0100    0.0100    0.0100    0.0100
0.0100    0.0100    0.0100    0.0100    0.0100    0.0100    0.0100    0.0100
0.0100    0.0100    0.0100    0.0100    0.0100    0.0100    0.0100    0.0100
0.0100    0.0100    0.0100    0.0100    0.0100    0.0100    0.0100    0.0100
0.0100    0.0100    0.0100    0.0100    0.0100    0.0100    0.0100    0.0100
0.0100    0.0100    0.0100    0.0100    0.0100    0.0100    0.0100    0.0100
0.0100    0.0100    0.0100    0.0100    0.0100    0.0100    0.0100    0.0100
0.0100    0.0100    0.0100    0.0100    0.0100    0.0100    0.0100    0.0100
0.0100    0.0100    0.0100    0.0100    0.0100    0.0100    0.0100    0.0100
0.0100    0.0100    0.0100    0.0100    0.0100    0.0100    0.0100    0.0100
0.0100    0.0100    0.0100    0.0100    0.0100    0.0100    0.0100    0.0100
0.0100    0.0100    0.0100    0.0100    0.0100    0.0100    0.0100    0.0100
0.0100    0.0100    0.0100    0.0100    0.0100    0.0100    0.0100    0.0100
0.0100    0.0100    0.0100    0.0100    0.0100    0.0100    0.0100    0.0100
0.0100    0.0100    0.0100    0.0100    0.0100    0.0100    0.0100    0.0100
0.0100    0.0100    0.0100    0.0100    0.0100    0.0100    0.0100    0.0100
0.0100    0.0100    0.0100    0.0100    0.0100    0.0100    0.0100    0.0100
0.0100    0.0100    0.0100    0.0100    0.0100    0.0100    0.0100    0.0100
0.0100    0.0100    0.0100    0.0100    0.0100    0.0100    0.0100    0.0100
0.0100    0.0100    0.0100    0.0100    0.0100    0.0100    0.0100    0.0100
0.0100    0.0100    0.0100    0.0100    0.0100    0.0100    0.0100    0.0100
0.0100    0.0100    0.0100    0.0100    0.0100    0.0100    0.0100    0.0100
0.0100    0.0100    0.0100    0.0100    0.0100    0.0100    0.0100    0.0100
0.0100    0.0100    0.0100    0.0100    0.0100    0.0100    0.0100    0.0100
0.0100    0.0100    0.0100    0.0100    0.0100    0.0100    0.0100    0.0100
0.0100    0.0100    0.0100    0.0100    0.0100    0.0100    0.0100    0.0100
0.0100    0.0100    0.0100    0.0100    0.0100    0.0100    0.0100    0.0100
0.0100    0.0100    0.0100    0.0100    0.0100    0.0100    0.0100    0.0100
0.0100    0.0100    0.0100    0.0100    0.0100    0.0100    0.0100    0.0100
0.0100    0.0100    0.0100    0.0100    0.0100    0.0100    0.0100    0.0100
0.0100    0.0100    0.0100    0.0100    0.0100    0.0100    0.0100    0.0100
0.0100    0.0100    0.0100    0.0100    0.0100    0.0100    0.0100    0.0100
0.0100    0.0100    0.0100    0.0100    0.0100    0.0100    0.0100    0.0100
0.0100    0.0100    0.0100    0.0100    0.0100    0.0100    0.0100    0.0100
0.0100    0.0100    0.0100    0.0100    0.0100    0.0100    0.0100    0.0100
0.0100    0.0100    0.0100    0.0100    0.0100    0.0100    0.0100    0.0100
0.0100    0.0100    0.0100    0.0100    0.0100    0.0100    0.0100    0.0100
0.0100    0.0100    0.0100    0.0100    0.0100    0.0100    0.0100    0.0100
0.0100    0.0100    0.0100    0.0100    0.0100    0.0100    0.0100    0.0100
0.0100    0.0100    0.0100    0.0100    0.0100    0.0100    0.0100    0.0100
0.0100    0.0100    0.0100    0.0100    0.0100    0.0100    0.0100    0.0100
0.0100    0.0100    0.0100    0.0100    0.0100    0.0100    0.0100    0.0100
0.0100    0.0100    0.0100    0.0100    0.0100    0.0100    0.0100    0.0100
0.0100    0.0100    0.0100    0.0100    0.0100    0.0100    0.0100    0.0100
0.0100    0.0100    0.0100    0.0100    0.0100    0.0100    0.0100    0.0100
0.0100    0.0100    0.0100    0.0100    0.0100    0.0100    0.0100    0.0100
</PP_RAB>
</PP_MESH>
<PP_LOCAL type="real"  size="600" columns="4">
-2.1829793588E+01   -2.1828633837E+01   -2.1825155711E+01   -2.1819362591E+01
-2.1811260090E+01   -2.1800856006E+01   -2.1788160266E+01   -2.1773184863E+01
-2.1755943766E+01   -2.1736452829E+01   -2.1714729689E+01   -2.1690793651E+01
-2.1664665574E+01   -2.1636367744E+01   -2.1605923754E+01   -2.1573358379E+01
-2.1538697447E+01   -2.1501967720E+01   -2.1463196774E+01   -2.1422412887E+01
-2.1379644926E+01   -2.1334922247E+01   -2.1288274599E+01   -2.1239732036E+01
-2.1189324829E+01   -2.1137083399E+01   -2.1083038242E+01   -2.1027219870E+01
-2.0969658754E+01   -2.0910385277E+01   -2.0849429681E+01   -2.0786822034E+01
-2.0722592189E+01   -2.0656769750E+01   -2.0589384044E+01   -2.0520464090E+01
-2.0450038573E+01   -2.0378135819E+01   -2.0304783774E+01   -2.0230009977E+01
-2.0153841542E+01   -2.0076305139E+01   -1.9997426971E+01   -1.9917232760E+01
-1.9835747733E+01   -1.9752996603E+01   -1.9669003566E+01   -1.9583792286E+01
-1.9497385898E+01   -1.9409807002E+01   -1.9321077674E+01   -1.9231219471E+01
-1.9140253446E+01   -1.9048200173E+01   -1.8955079769E+01   -1.8860911922E+01
-1.8765715933E+01   -1.8669510751E+01   -1.8572315014E+01   -1.8474147094E+01
-1.8375025142E+01   -1.8274967127E+01   -1.8173990876E+01   -1.8072114111E+01
-1.7969354471E+01   -1.7865729536E+01   -1.7761256837E+01   -1.7655953860E+01
-1.7549838038E+01   -1.7442926745E+01   -1.7335237276E+01   -1.7226786840E+01
-1.7117592549E+01   -1.7007671428E+01   -1.6897040441E+01   -1.6785716552E+01
-1.6673716813E+01   -1.6561058516E+01   -1.6447759378E+01   -1.6333837799E+01
-1.6219313170E+01   -1.6104206252E+01   -1.5988539593E+01   -1.5872337996E+01
-1.5755629014E+01   -1.5638443443E+01   -1.5520815807E+01   -1.5402784781E+01
-1.5284393556E+01   -1.5165690082E+01   -1.5046727199E+01   -1.4927562608E+01
-1.4808258687E+01   -1.4688882138E+01   -1.4569503484E+01   -1.4450196417E+01
-1.4331037038E+01   -1.4212103002E+01   -1.4093472630E+01   -1.3975224009E+01
-1.3857434118E+01   -1.3740178036E+01   -1.3623528230E+01   -1.3507553967E+01
-1.3392320860E+01   -1.3277890534E+01   -1.3164320432E+01   -1.3051663738E+01
-1.2939969396E+01   -1.2829282224E+01   -1.2719643084E+01   -1.2611089105E+01
-1.2503653924E+01   -1.2397367943E+01   -1.2292258577E+01   -1.2188350488E+01
-1.2085665790E+01   -1.1984224224E+01   -1.1884043298E+01   -1.1785138383E+01
-1.1687522773E+01   -1.1591207708E+01   -1.1496202347E+01   -1.1402513722E+01
-1.1310146646E+01   -1.1219103601E+01   -1.1129384594E+01   -1.1040986995E+01
-1.0953905357E+01   -1.0868131296E+01   -1.0783653169E+01   -1.0700455715E+01
-1.0618521803E+01   -1.0537833434E+01   -1.0458373567E+01   -1.0380120413E+01
-1.0303045233E+01   -1.0227110990E+01   -1.0152283060E+01   -1.0078540375E+01
-1.0005867429E+01   -9.9342499356E+00   -9.8636669684E+00   -9.7940961780E+00
-9.7255193293E+00   -9.6579176586E+00   -9.5912714374E+00   -9.5255613100E+00
-9.4607681069E+00   -9.3968727226E+00   -9.3338562490E+00   -9.2717000272E+00
-9.2103855939E+00   -9.1498948336E+00   -9.0902097306E+00   -9.0313133477E+00
-8.9731913812E+00   -8.9158317890E+00   -8.8592256716E+00   -8.8033632898E+00
-8.7482304148E+00   -8.6938111348E+00   -8.6400889436E+00   -8.5870483890E+00
-8.5346764596E+00   -8.4829600011E+00   -8.4318848849E+00   -8.3814374861E+00
-8.3316048828E+00   -8.2823743968E+00   -8.2337335902E+00   -8.1856703698E+00
-8.1381729858E+00   -8.0912300197E+00   -8.0448303874E+00   -7.9989633398E+00
-7.9536184618E+00   -7.9087856687E+00   -7.8644552027E+00   -7.8206176276E+00
-7.7772638230E+00   -7.7343849774E+00   -7.6919725800E+00   -7.6500184121E+00
-7.6085145380E+00   -7.5674532952E+00   -7.5268272834E+00   -7.4866293540E+00
-7.4468525990E+00   -7.4074903391E+00   -7.3685361123E+00   -7.3299836622E+00
-7.2918269258E+00   -7.2540600226E+00   -7.2166772423E+00   -7.1796730337E+00
-7.1430419936E+00   -7.1067788563E+00   -7.0708784830E+00   -7.0353358522E+00
-7.0001460499E+00   -6.9653042616E+00   -6.9308057632E+00   -6.8966459138E+00
-6.8628201489E+00   -6.8293239737E+00   -6.7961529577E+00   -6.7633027297E+00
-6.7307689732E+00   -6.6985474232E+00   -6.6666338625E+00   -6.6350241200E+00
-6.6037140683E+00   -6.5726996227E+00   -6.5419767401E+00   -6.5115414192E+00
-6.4813897001E+00   -6.4515176654E+00   -6.4219214405E+00   -6.3925971948E+00
-6.3635411436E+00   -6.3347495490E+00   -6.3062187219E+00   -6.2779450237E+00
-6.2499248681E+00   -6.2221547228E+00   -6.1946311112E+00   -6.1673506144E+00
-6.1403098721E+00   -6.1135055841E+00   -6.0869345118E+00   -6.0605934787E+00
-6.0344793712E+00   -6.0085891391E+00   -5.9829197958E+00   -5.9574684180E+00
-5.9322321456E+00   -5.9072081810E+00   -5.8823937884E+00   -5.8577862924E+00
-5.8333830770E+00   -5.8091815839E+00   -5.7851793109E+00   -5.7613738100E+00
-5.7377626856E+00   -5.7143435921E+00   -5.6911142318E+00   -5.6680723528E+00
-5.6452157467E+00   -5.6225422462E+00   -5.6000497229E+00   -5.5777360852E+00
-5.5555992761E+00   -5.5336372711E+00   -5.5118480763E+00   -5.4902297267E+00
-5.4687802846E+00   -5.4474978376E+00   -5.4263804979E+00   -5.4054264009E+00
-5.3846337038E+00   -5.3640005855E+00   -5.3435252452E+00   -5.3232059024E+00
-5.3030407962E+00   -5.2830281854E+00   -5.2631663482E+00   -5.2434535822E+00
-5.2238882049E+00   -5.2044685533E+00   -5.1851929849E+00   -5.1660598776E+00
-5.1470676300E+00   -5.1282146622E+00   -5.1094994161E+00   -5.0909203555E+00
-5.0724759666E+00   -5.0541647585E+00   -5.0359852634E+00   -5.0179360365E+00
-5.0000156566E+00   -4.9822227257E+00   -4.9645558691E+00   -4.9470137356E+00
-4.9295949969E+00   -4.9122983471E+00   -4.8951225029E+00   -4.8780662021E+00
-4.8611282044E+00   -4.8443072929E+00   -4.8276022686E+00   -4.8110119520E+00
-4.7945351771E+00   -4.7781707964E+00   -4.7619176956E+00   -4.7457747596E+00
-4.7297408590E+00   -4.7138149223E+00   -4.6979957905E+00   -4.6822826901E+00
-4.6666747638E+00   -4.6511711956E+00   -4.6357710071E+00   -4.6204727176E+00
-4.6052750060E+00   -4.5901763749E+00   -4.5751759259E+00   -4.5602728790E+00
-4.5454664576E+00   -4.5307560265E+00   -4.5161405425E+00   -4.5016190938E+00
-4.4871907379E+00   -4.4728545522E+00   -4.4586096830E+00   -4.4444552586E+00
-4.4303904203E+00   -4.4164143193E+00   -4.4025261175E+00   -4.3887249889E+00
-4.3750101195E+00   -4.3613807022E+00   -4.3478359406E+00   -4.3343750486E+00
-4.3209972492E+00   -4.3077017757E+00   -4.2944878705E+00   -4.2813547852E+00
-4.2683017806E+00   -4.2553281265E+00   -4.2424331016E+00   -4.2296159932E+00
-4.2168760973E+00   -4.2042127182E+00   -4.1916251687E+00   -4.1791127697E+00
-4.1666748503E+00   -4.1543107474E+00   -4.1420198058E+00   -4.1298013782E+00
-4.1176548246E+00   -4.1055795128E+00   -4.0935748178E+00   -4.0816401220E+00
-4.0697748150E+00   -4.0579782933E+00   -4.0462499606E+00   -4.0345892274E+00
-4.0229955108E+00   -4.0114682349E+00   -4.0000068300E+00   -3.9886107333E+00
-3.9772793881E+00   -3.9660122442E+00   -3.9548087573E+00   -3.9436683897E+00
-3.9325906094E+00   -3.9215748904E+00   -3.9106207127E+00   -3.8997275620E+00
-3.8888949297E+00   -3.8781223130E+00   -3.8674092144E+00   -3.8567551421E+00
-3.8461596096E+00   -3.8356221356E+00   -3.8251422445E+00   -3.8147194653E+00
-3.8043533326E+00   -3.7940433857E+00   -3.7837891692E+00   -3.7735902324E+00
-3.7634461294E+00   -3.7533564193E+00   -3.7433206657E+00   -3.7333384369E+00
-3.7234093060E+00   -3.7135328503E+00   -3.7037086518E+00   -3.6939362968E+00
-3.6842153761E+00   -3.6745454847E+00   -3.6649262217E+00   -3.6553571907E+00
-3.6458379991E+00   -3.6363682586E+00   -3.6269475849E+00   -3.6175755975E+00
-3.6082519202E+00   -3.5989761801E+00   -3.5897480087E+00   -3.5805670409E+00
-3.5714329155E+00   -3.5623452748E+00   -3.5533037649E+00   -3.5443080356E+00
-3.5353577398E+00   -3.5264525343E+00   -3.5175920792E+00   -3.5087760381E+00
-3.5000040777E+00   -3.4912758684E+00   -3.4825910835E+00   -3.4739494000E+00
-3.4653504975E+00   -3.4567940594E+00   -3.4482797717E+00   -3.4398073238E+00
-3.4313764081E+00   -3.4229867198E+00   -3.4146379573E+00   -3.4063298219E+00
-3.3980620178E+00   -3.3898342518E+00   -3.3816462340E+00   -3.3734976770E+00
-3.3653882962E+00   -3.3573178097E+00   -3.3492859383E+00   -3.3412924057E+00
-3.3333369379E+00   -3.3254192637E+00   -3.3175391144E+00   -3.3096962238E+00
-3.3018903284E+00   -3.2941211669E+00   -3.2863884807E+00   -3.2786920135E+00
-3.2710315114E+00   -3.2634067229E+00   -3.2558173989E+00   -3.2482632924E+00
-3.2407441589E+00   -3.2332597561E+00   -3.2258098439E+00   -3.2183941844E+00
-3.2110125419E+00   -3.2036646830E+00   -3.1963503761E+00   -3.1890693921E+00
-3.1818215036E+00   -3.1746064856E+00   -3.1674241149E+00   -3.1602741705E+00
-3.1531564332E+00   -3.1460706859E+00   -3.1390167134E+00   -3.1319943025E+00
-3.1250032418E+00   -3.1180433218E+00   -3.1111143350E+00   -3.1042160754E+00
-3.0973483393E+00   -3.0905109245E+00   -3.0837036305E+00   -3.0769262588E+00
-3.0701786125E+00   -3.0634604965E+00   -3.0567717173E+00   -3.0501120832E+00
-3.0434814042E+00   -3.0368794917E+00   -3.0303061590E+00   -3.0237612209E+00
-3.0172444937E+00   -3.0107557956E+00   -3.0042949460E+00   -2.9978617660E+00
-2.9914560783E+00   -2.9850777071E+00   -2.9787264778E+00   -2.9724022177E+00
-2.9661047553E+00   -2.9598339207E+00   -2.9535895454E+00   -2.9473714621E+00
-2.9411795053E+00   -2.9350135105E+00   -2.9288733149E+00   -2.9227587569E+00
-2.9166696762E+00   -2.9106059139E+00   -2.9045673124E+00   -2.8985537155E+00
-2.8925649681E+00   -2.8866009166E+00   -2.8806614084E+00   -2.8747462925E+00
-2.8688554189E+00   -2.8629886387E+00   -2.8571458046E+00   -2.8513267702E+00
-2.8455313903E+00   -2.8397595211E+00   -2.8340110197E+00   -2.8282857446E+00
-2.8225835552E+00   -2.8169043122E+00   -2.8112478774E+00   -2.8056141136E+00
-2.8000028848E+00   -2.7944140561E+00   -2.7888474935E+00   -2.7833030644E+00
-2.7777806369E+00   -2.7722800804E+00   -2.7668012652E+00   -2.7613440625E+00
-2.7559083449E+00   -2.7504939856E+00   -2.7451008591E+00   -2.7397288406E+00
-2.7343778065E+00   -2.7290476341E+00   -2.7237382016E+00   -2.7184493882E+00
-2.7131810740E+00   -2.7079331401E+00   -2.7027054684E+00   -2.6974979418E+00
-2.6923104441E+00   -2.6871428600E+00   -2.6819950749E+00   -2.6768669754E+00
-2.6717584488E+00   -2.6666693831E+00   -2.6615996674E+00   -2.6565491916E+00
-2.6515178463E+00   -2.6465055231E+00   -2.6415121142E+00   -2.6365375128E+00
-2.6315816128E+00   -2.6266443091E+00   -2.6217254970E+00   -2.6168250730E+00
-2.6119429341E+00   -2.6070789781E+00   -2.6022331037E+00   -2.5974052102E+00
-2.5925951978E+00   -2.5878029672E+00   -2.5830284200E+00   -2.5782714586E+00
-2.5735319860E+00   -2.5688099059E+00   -2.5641051227E+00   -2.5594175416E+00
-2.5547470684E+00   -2.5500936096E+00   -2.5454570724E+00   -2.5408373647E+00
-2.5362343951E+00   -2.5316480726E+00   -2.5270783072E+00   -2.5225250094E+00
-2.5179880903E+00   -2.5134674617E+00   -2.5089630360E+00   -2.5044747263E+00
-2.5000024462E+00   -2.4955461100E+00   -2.4911056326E+00   -2.4866809295E+00
-2.4822719168E+00   -2.4778785112E+00   -2.4735006299E+00   -2.4691381908E+00
-2.4647911124E+00   -2.4604593137E+00   -2.4561427142E+00   -2.4518412341E+00
-2.4475547941E+00   -2.4432833155E+00   -2.4390267200E+00   -2.4347849301E+00
-2.4305578685E+00   -2.4263454588E+00   -2.4221476248E+00   -2.4179642911E+00
-2.4137953826E+00   -2.4096408249E+00   -2.4055005440E+00   -2.4013744664E+00
-2.3972625192E+00   -2.3931646299E+00   -2.3890807265E+00   -2.3850107376E+00
-2.3809545921E+00   -2.3769122197E+00   -2.3728835501E+00   -2.3688685139E+00
-2.3648670420E+00   -2.3608790658E+00   -2.3569045170E+00   -2.3529433281E+00
-2.3489954317E+00   -2.3450607610E+00   -2.3411392498E+00   -2.3372308321E+00
</PP_LOCAL>
<PP_NONLOCAL>
<PP_BETA.1
type="real"
size="600"
columns="4"
index="1"
angular_momentum="0"
cutoff_radius_index=" 180"
cutoff_radius="    1.7900000000E+00" >
4.9378245937E-10    4.6684783491E-02    9.3344223999E-02    1.3995256328E-01
1.8648322030E-01    2.3290839904E-01    2.7919871899E-01    3.2532287523E-01
3.7124733472E-01    4.1693607451E-01    4.6235036713E-01    5.0744861759E-01
5.5218625537E-01    5.9651568416E-01    6.4038629097E-01    6.8374451519E-01
7.2653397738E-01    7.6869566640E-01    8.1016818259E-01    8.5088803376E-01
8.9078997997E-01    9.2980742204E-01    9.6787282830E-01    1.0049181932E+00
1.0408755211E+00    1.0756773278E+00    1.1092571527E+00    1.1415500736E+00
1.1724932165E+00    1.2020262527E+00    1.2300918766E+00    1.2566362554E+00
1.2816094461E+00    1.3049657729E+00    1.3266641587E+00    1.3466684083E+00
1.3649474376E+00    1.3814754464E+00    1.3962320338E+00    1.4092022543E+00
1.4203766148E+00    1.4297510135E+00    1.4373266234E+00    1.4431097221E+00
1.4471114726E+00    1.4493476593E+00    1.4498383847E+00    1.4486077320E+00
1.4456834018E+00    1.4410963271E+00    1.4348802761E+00    1.4270714494E+00
1.4177080777E+00    1.4068300289E+00    1.3944784309E+00    1.3806953162E+00
1.3655232951E+00    1.3490052633E+00    1.3311841475E+00    1.3121026942E+00
1.2918033052E+00    1.2703279202E+00    1.2477179506E+00    1.2240142622E+00
1.1992572082E+00    1.1734867095E+00    1.1467423805E+00    1.1190636963E+00
1.0904901978E+00    1.0610617281E+00    1.0308186961E+00    9.9980235853E-01
9.6805511631E-01    9.3562081502E-01    9.0254504390E-01    8.6887542485E-01
8.3466188395E-01    7.9995689803E-01    7.6481570927E-01    7.2929650091E-01
6.9346052815E-01    6.5737219875E-01    6.2109909856E-01    5.8471195850E-01
5.4828455992E-01    5.1189357682E-01    4.7561835418E-01    4.3954062272E-01
4.0374415188E-01    3.6831434348E-01    3.3333776977E-01    2.9890166084E-01
2.6509334679E-01    2.3199966154E-01    1.9970631545E-01    1.6829724488E-01
1.3785394728E-01    1.0845481080E-01    8.0174447663E-02    5.3083040721E-02
2.7245712610E-02    2.7219266121E-03   -2.0435071833E-02   -4.2178764590E-02
-6.2469813461E-02   -8.1276448899E-02   -9.8574788635E-02   -1.1434908086E-01
-1.2859186775E-01   -1.4130406627E-01   -1.5249496415E-01   -1.6218213034E-01
-1.7039124027E-01   -1.7715581760E-01   -1.8251689514E-01   -1.8652259897E-01
-1.8922766047E-01   -1.9069286241E-01   -1.9098442581E-01   -1.9017334513E-01
-1.8833467995E-01   -1.8554681198E-01   -1.8189067626E-01   -1.7744897608E-01
-1.7230539075E-01   -1.6654378558E-01   -1.6024743286E-01   -1.5349825323E-01
-1.4637608129E-01   -1.3895798917E-01   -1.3131759740E-01   -1.2352445476E-01
-1.1564387660E-01   -1.0773689754E-01   -9.9860406972E-02   -9.2066957115E-02
-8.4404673971E-02   -7.6917257820E-02   -6.9644032177E-02   -6.2620054690E-02
-5.5876283152E-02   -4.9439791608E-02   -4.3334030514E-02   -3.7579125057E-02
-3.2192203269E-02   -2.7187747376E-02   -2.2577959507E-02   -1.8373134335E-02
-1.4582029629E-02   -1.1212227922E-02   -8.2704798006E-03   -5.7641806116E-03
-3.6969027307E-03   -2.0665680805E-03   -9.0335849258E-04   -2.2857378537E-04
4.3618197540E-05    5.8482843638E-05   -4.5880050072E-06   -1.5758027974E-05
1.4101113671E-06    2.9210887876E-06   -6.7942842865E-08   -1.0381152891E-07
0.0000000000E+00    0.0000000000E+00    0.0000000000E+00    0.0000000000E+00
0.0000000000E+00    0.0000000000E+00    0.0000000000E+00    0.0000000000E+00
0.0000000000E+00    0.0000000000E+00    0.0000000000E+00    0.0000000000E+00
0.0000000000E+00    0.0000000000E+00    0.0000000000E+00    0.0000000000E+00
0. 0. 0. 0.
0. 0. 0. 0.
0. 0. 0. 0.
0. 0. 0. 0.
0. 0. 0. 0.
0. 0. 0. 0.
0. 0. 0. 0.
0. 0. 0. 0.
0. 0. 0. 0.
0. 0. 0. 0.
0. 0. 0. 0.
0. 0. 0. 0.
0. 0. 0. 0.
0. 0. 0. 0.
0. 0. 0. 0.
0. 0. 0. 0.
0. 0. 0. 0.
0. 0. 0. 0.
0. 0. 0. 0.
0. 0. 0. 0.
0. 0. 0. 0.
0. 0. 0. 0.
0. 0. 0. 0.
0. 0. 0. 0.
0. 0. 0. 0.
0. 0. 0. 0.
0. 0. 0. 0.
0. 0. 0. 0.
0. 0. 0. 0.
0. 0. 0. 0.
0. 0. 0. 0.
0. 0. 0. 0.
0. 0. 0. 0.
0. 0. 0. 0.
0. 0. 0. 0.
0. 0. 0. 0.
0. 0. 0. 0.
0. 0. 0. 0.
0. 0. 0. 0.
0. 0. 0. 0.
0. 0. 0. 0.
0. 0. 0. 0.
0. 0. 0. 0.
0. 0. 0. 0.
0. 0. 0. 0.
0. 0. 0. 0.
0. 0. 0. 0.
0. 0. 0. 0.
0. 0. 0. 0.
0. 0. 0. 0.
0. 0. 0. 0.
0. 0. 0. 0.
0. 0. 0. 0.
0. 0. 0. 0.
0. 0. 0. 0.
0. 0. 0. 0.
0. 0. 0. 0.
0. 0. 0. 0.
0. 0. 0. 0.
0. 0. 0. 0.