<UPF version="2.0.1">
<PP_INFO>
NOTE!!!!
This file is trimmed with a mesh size of 600 from the original version.
Trimming performed at 2023-03-31 09:10:05.139136 by trim_upf.py version 0.1.0

This pseudopotential file has been produced using the code
ONCVPSP  (Optimized Norm-Conservinng Vanderbilt PSeudopotential)
scalar-relativistic version 3.3.0 08/16/2017 by D. R. Hamann
The code is available through a link at URL www.mat-simresearch.com.
Documentation with the package provides a full discription of the
input data below.
While it is not required under the terms of the GNU GPL, it is
suggested that you cite D. R. Hamann, Phys. Rev. B 88, 085117 (2013)
in any publication using these pseudopotentials.
<PP_INPUTFILE>
# ATOM AND REFERENCE CONFIGURATION
# atsym  z   nc   nv     iexc    psfile
Co 27.00    3    4       4      upf
#
#   n    l    f        energy (Ha)
1    0    2.00
2    0    2.00
2    1    6.00
3    0    2.00
3    1    6.00
3    2    7.00
4    0    2.00
#
# PSEUDOPOTENTIAL AND OPTIMIZATION
# lmax
2
#
#   l,   rc,      ep,       ncon, nbas, qcut
0   1.25000  -3.76330    4    7   9.30000
1   1.32000  -2.41210    4    7   9.70000
2   1.65000  -0.30150    4    7   9.50000
#
# LOCAL POTENTIAL
# lloc, lpopt,  rc(5),   dvloc0
4    5   1.20000      0.00000
#
# VANDERBILT-KLEINMAN-BYLANDER PROJECTORs
# l, nproj, debl
0    2   3.56228
1    2   2.36519
2    2   0.80000
#
# MODEL CORE CHARGE
# icmod, fcfact, rcfact
3   6.00000   1.80000
#
# LOG DERIVATIVE ANALYSIS
# epsh1, epsh2, depsh
-12.00   12.00    0.02
#
# OUTPUT GRID
# rlmax, drl
6.00    0.01
#
# TEST CONFIGURATIONS
# ncnf
0
# nvcnf
#   n    l    f
</PP_INPUTFILE>
</PP_INFO>
<!--                               -->
<!-- END OF HUMAN READABLE SECTION -->
<!--                               -->
<PP_HEADER
generated="Generated using ONCVPSP code by D. R. Hamann"
author="anonymous"
date="171031"
comment=""
element="Co"
pseudo_type="NC"
relativistic="scalar"
is_ultrasoft="F"
is_paw="F"
is_coulomb="F"
has_so="F"
has_wfc="F"
has_gipaw="F"
core_correction="T"
functional="PBE"
z_valence="   17.00"
total_psenergy="  -2.84368948748E+02"
rho_cutoff="   1.38700000000E+01"
l_max="2"
l_local="-1"
mesh_size="   600"
number_of_wfc="4"
number_of_proj="6"/>
<PP_MESH>
<PP_R type="real"  size="600" columns="8">
0.0000    0.0100    0.0200    0.0300    0.0400    0.0500    0.0600    0.0700
0.0800    0.0900    0.1000    0.1100    0.1200    0.1300    0.1400    0.1500
0.1600    0.1700    0.1800    0.1900    0.2000    0.2100    0.2200    0.2300
0.2400    0.2500    0.2600    0.2700    0.2800    0.2900    0.3000    0.3100
0.3200    0.3300    0.3400    0.3500    0.3600    0.3700    0.3800    0.3900
0.4000    0.4100    0.4200    0.4300    0.4400    0.4500    0.4600    0.4700
0.4800    0.4900    0.5000    0.5100    0.5200    0.5300    0.5400    0.5500
0.5600    0.5700    0.5800    0.5900    0.6000    0.6100    0.6200    0.6300
0.6400    0.6500    0.6600    0.6700    0.6800    0.6900    0.7000    0.7100
0.7200    0.7300    0.7400    0.7500    0.7600    0.7700    0.7800    0.7900
0.8000    0.8100    0.8200    0.8300    0.8400    0.8500    0.8600    0.8700
0.8800    0.8900    0.9000    0.9100    0.9200    0.9300    0.9400    0.9500
0.9600    0.9700    0.9800    0.9900    1.0000    1.0100    1.0200    1.0300
1.0400    1.0500    1.0600    1.0700    1.0800    1.0900    1.1000    1.1100
1.1200    1.1300    1.1400    1.1500    1.1600    1.1700    1.1800    1.1900
1.2000    1.2100    1.2200    1.2300    1.2400    1.2500    1.2600    1.2700
1.2800    1.2900    1.3000    1.3100    1.3200    1.3300    1.3400    1.3500
1.3600    1.3700    1.3800    1.3900    1.4000    1.4100    1.4200    1.4300
1.4400    1.4500    1.4600    1.4700    1.4800    1.4900    1.5000    1.5100
1.5200    1.5300    1.5400    1.5500    1.5600    1.5700    1.5800    1.5900
1.6000    1.6100    1.6200    1.6300    1.6400    1.6500    1.6600    1.6700
1.6800    1.6900    1.7000    1.7100    1.7200    1.7300    1.7400    1.7500
1.7600    1.7700    1.7800    1.7900    1.8000    1.8100    1.8200    1.8300
1.8400    1.8500    1.8600    1.8700    1.8800    1.8900    1.9000    1.9100
1.9200    1.9300    1.9400    1.9500    1.9600    1.9700    1.9800    1.9900
2.0000    2.0100    2.0200    2.0300    2.0400    2.0500    2.0600    2.0700
2.0800    2.0900    2.1000    2.1100    2.1200    2.1300    2.1400    2.1500
2.1600    2.1700    2.1800    2.1900    2.2000    2.2100    2.2200    2.2300
2.2400    2.2500    2.2600    2.2700    2.2800    2.2900    2.3000    2.3100
2.3200    2.3300    2.3400    2.3500    2.3600    2.3700    2.3800    2.3900
2.4000    2.4100    2.4200    2.4300    2.4400    2.4500    2.4600    2.4700
2.4800    2.4900    2.5000    2.5100    2.5200    2.5300    2.5400    2.5500
2.5600    2.5700    2.5800    2.5900    2.6000    2.6100    2.6200    2.6300
2.6400    2.6500    2.6600    2.6700    2.6800    2.6900    2.7000    2.7100
2.7200    2.7300    2.7400    2.7500    2.7600    2.7700    2.7800    2.7900
2.8000    2.8100    2.8200    2.8300    2.8400    2.8500    2.8600    2.8700
2.8800    2.8900    2.9000    2.9100    2.9200    2.9300    2.9400    2.9500
2.9600    2.9700    2.9800    2.9900    3.0000    3.0100    3.0200    3.0300
3.0400    3.0500    3.0600    3.0700    3.0800    3.0900    3.1000    3.1100
3.1200    3.1300    3.1400    3.1500    3.1600    3.1700    3.1800    3.1900
3.2000    3.2100    3.2200    3.2300    3.2400    3.2500    3.2600    3.2700
3.2800    3.2900    3.3000    3.3100    3.3200    3.3300    3.3400    3.3500
3.3600    3.3700    3.3800    3.3900    3.4000    3.4100    3.4200    3.4300
3.4400    3.4500    3.4600    3.4700    3.4800    3.4900    3.5000    3.5100
3.5200    3.5300    3.5400    3.5500    3.5600    3.5700    3.5800    3.5900
3.6000    3.6100    3.6200    3.6300    3.6400    3.6500    3.6600    3.6700
3.6800    3.6900    3.7000    3.7100    3.7200    3.7300    3.7400    3.7500
3.7600    3.7700    3.7800    3.7900    3.8000    3.8100    3.8200    3.8300
3.8400    3.8500    3.8600    3.8700    3.8800    3.8900    3.9000    3.9100
3.9200    3.9300    3.9400    3.9500    3.9600    3.9700    3.9800    3.9900
4.0000    4.0100    4.0200    4.0300    4.0400    4.0500    4.0600    4.0700
4.0800    4.0900    4.1000    4.1100    4.1200    4.1300    4.1400    4.1500
4.1600    4.1700    4.1800    4.1900    4.2000    4.2100    4.2200    4.2300
4.2400    4.2500    4.2600    4.2700    4.2800    4.2900    4.3000    4.3100
4.3200    4.3300    4.3400    4.3500    4.3600    4.3700    4.3800    4.3900
4.4000    4.4100    4.4200    4.4300    4.4400    4.4500    4.4600    4.4700
4.4800    4.4900    4.5000    4.5100    4.5200    4.5300    4.5400    4.5500
4.5600    4.5700    4.5800    4.5900    4.6000    4.6100    4.6200    4.6300
4.6400    4.6500    4.6600    4.6700    4.6800    4.6900    4.7000    4.7100
4.7200    4.7300    4.7400    4.7500    4.7600    4.7700    4.7800    4.7900
4.8000    4.8100    4.8200    4.8300    4.8400    4.8500    4.8600    4.8700
4.8800    4.8900    4.9000    4.9100    4.9200    4.9300    4.9400    4.9500
4.9600    4.9700    4.9800    4.9900    5.0000    5.0100    5.0200    5.0300
5.0400    5.0500    5.0600    5.0700    5.0800    5.0900    5.1000    5.1100
5.1200    5.1300    5.1400    5.1500    5.1600    5.1700    5.1800    5.1900
5.2000    5.2100    5.2200    5.2300    5.2400    5.2500    5.2600    5.2700
5.2800    5.2900    5.3000    5.3100    5.3200    5.3300    5.3400    5.3500
5.3600    5.3700    5.3800    5.3900    5.4000    5.4100    5.4200    5.4300
5.4400    5.4500    5.4600    5.4700    5.4800    5.4900    5.5000    5.5100
5.5200    5.5300    5.5400    5.5500    5.5600    5.5700    5.5800    5.5900
5.6000    5.6100    5.6200    5.6300    5.6400    5.6500    5.6600    5.6700
5.6800    5.6900    5.7000    5.7100    5.7200    5.7300    5.7400    5.7500
5.7600    5.7700    5.7800    5.7900    5.8000    5.8100    5.8200    5.8300
5.8400    5.8500    5.8600    5.8700    5.8800    5.8900    5.9000    5.9100
5.9200    5.9300    5.9400    5.9500    5.9600    5.9700    5.9800    5.9900
</PP_R>
<PP_RAB type="real"  size="600" columns="8">
0.0100    0.0100    0.0100    0.0100    0.0100    0.0100    0.0100    0.0100
0.0100    0.0100    0.0100    0.0100    0.0100    0.0100    0.0100    0.0100
0.0100    0.0100    0.0100    0.0100    0.0100    0.0100    0.0100    0.0100
0.0100    0.0100    0.0100    0.0100    0.0100    0.0100    0.0100    0.0100
0.0100    0.0100    0.0100    0.0100    0.0100    0.0100    0.0100    0.0100
0.0100    0.0100    0.0100    0.0100    0.0100    0.0100    0.0100    0.0100
0.0100    0.0100    0.0100    0.0100    0.0100    0.0100    0.0100    0.0100
0.0100    0.0100    0.0100    0.0100    0.0100    0.0100    0.0100    0.0100
0.0100    0.0100    0.0100    0.0100    0.0100    0.0100    0.0100    0.0100
0.0100    0.0100    0.0100    0.0100    0.0100    0.0100    0.0100    0.0100
0.0100    0.0100    0.0100    0.0100    0.0100    0.0100    0.0100    0.0100
0.0100    0.0100    0.0100    0.0100    0.0100    0.0100    0.0100    0.0100
0.0100    0.0100    0.0100    0.0100    0.0100    0.0100    0.0100    0.0100
0.0100    0.0100    0.0100    0.0100    0.0100    0.0100    0.0100    0.0100
0.0100    0.0100    0.0100    0.0100    0.0100    0.0100    0.0100    0.0100
0.0100    0.0100    0.0100    0.0100    0.0100    0.0100    0.0100    0.0100
0.0100    0.0100    0.0100    0.0100    0.0100    0.0100    0.0100    0.0100
0.0100    0.0100    0.0100    0.0100    0.0100    0.0100    0.0100    0.0100
0.0100    0.0100    0.0100    0.0100    0.0100    0.0100    0.0100    0.0100
0.0100    0.0100    0.0100    0.0100    0.0100    0.0100    0.0100    0.0100
0.0100    0.0100    0.0100    0.0100    0.0100    0.0100    0.0100    0.0100
0.0100    0.0100    0.0100    0.0100    0.0100    0.0100    0.0100    0.0100
0.0100    0.0100    0.0100    0.0100    0.0100    0.0100    0.0100    0.0100
0.0100    0.0100    0.0100    0.0100    0.0100    0.0100    0.0100    0.0100
0.0100    0.0100    0.0100    0.0100    0.0100    0.0100    0.0100    0.0100
0.0100    0.0100    0.0100    0.0100    0.0100    0.0100    0.0100    0.0100
0.0100    0.0100    0.0100    0.0100    0.0100    0.0100    0.0100    0.0100
0.0100    0.0100    0.0100    0.0100    0.0100    0.0100    0.0100    0.0100
0.0100    0.0100    0.0100    0.0100    0.0100    0.0100    0.0100    0.0100
0.0100    0.0100    0.0100    0.0100    0.0100    0.0100    0.0100    0.0100
0.0100    0.0100    0.0100    0.0100    0.0100    0.0100    0.0100    0.0100
0.0100    0.0100    0.0100    0.0100    0.0100    0.0100    0.0100    0.0100
0.0100    0.0100    0.0100    0.0100    0.0100    0.0100    0.0100    0.0100
0.0100    0.0100    0.0100    0.0100    0.0100    0.0100    0.0100    0.0100
0.0100    0.0100    0.0100    0.0100    0.0100    0.0100    0.0100    0.0100
0.0100    0.0100    0.0100    0.0100    0.0100    0.0100    0.0100    0.0100
0.0100    0.0100    0.0100    0.0100    0.0100    0.0100    0.0100    0.0100
0.0100    0.0100    0.0100    0.0100    0.0100    0.0100    0.0100    0.0100
0.0100    0.0100    0.0100    0.0100    0.0100    0.0100    0.0100    0.0100
0.0100    0.0100    0.0100    0.0100    0.0100    0.0100    0.0100    0.0100
0.0100    0.0100    0.0100    0.0100    0.0100    0.0100    0.0100    0.0100
0.0100    0.0100    0.0100    0.0100    0.0100    0.0100    0.0100    0.0100
0.0100    0.0100    0.0100    0.0100    0.0100    0.0100    0.0100    0.0100
0.0100    0.0100    0.0100    0.0100    0.0100    0.0100    0.0100    0.0100
0.0100    0.0100    0.0100    0.0100    0.0100    0.0100    0.0100    0.0100
0.0100    0.0100    0.0100    0.0100    0.0100    0.0100    0.0100    0.0100
0.0100    0.0100    0.0100    0.0100    0.0100    0.0100    0.0100    0.0100
0.0100    0.0100    0.0100    0.0100    0.0100    0.0100    0.0100    0.0100
0.0100    0.0100    0.0100    0.0100    0.0100    0.0100    0.0100    0.0100
0.0100    0.0100    0.0100    0.0100    0.0100    0.0100    0.0100    0.0100
0.0100    0.0100    0.0100    0.0100    0.0100    0.0100    0.0100    0.0100
0.0100    0.0100    0.0100    0.0100    0.0100    0.0100    0.0100    0.0100
0.0100    0.0100    0.0100    0.0100    0.0100    0.0100    0.0100    0.0100
0.0100    0.0100    0.0100    0.0100    0.0100    0.0100    0.0100    0.0100
0.0100    0.0100    0.0100    0.0100    0.0100    0.0100    0.0100    0.0100
0.0100    0.0100    0.0100    0.0100    0.0100    0.0100    0.0100    0.0100
0.0100    0.0100    0.0100    0.0100    0.0100    0.0100    0.0100    0.0100
0.0100    0.0100    0.0100    0.0100    0.0100    0.0100    0.0100    0.0100
0.0100    0.0100    0.0100    0.0100    0.0100    0.0100    0.0100    0.0100
0.0100    0.0100    0.0100    0.0100    0.0100    0.0100    0.0100    0.0100
0.0100    0.0100    0.0100    0.0100    0.0100    0.0100    0.0100    0.0100
0.0100    0.0100    0.0100    0.0100    0.0100    0.0100    0.0100    0.0100
0.0100    0.0100    0.0100    0.0100    0.0100    0.0100    0.0100    0.0100
0.0100    0.0100    0.0100    0.0100    0.0100    0.0100    0.0100    0.0100
0.0100    0.0100    0.0100    0.0100    0.0100    0.0100    0.0100    0.0100
0.0100    0.0100    0.0100    0.0100    0.0100    0.0100    0.0100    0.0100
0.0100    0.0100    0.0100    0.0100    0.0100    0.0100    0.0100    0.0100
0.0100    0.0100    0.0100    0.0100    0.0100    0.0100    0.0100    0.0100
0.0100    0.0100    0.0100    0.0100    0.0100    0.0100    0.0100    0.0100
0.0100    0.0100    0.0100    0.0100    0.0100    0.0100    0.0100    0.0100
0.0100    0.0100    0.0100    0.0100    0.0100    0.0100    0.0100    0.0100
0.0100    0.0100    0.0100    0.0100    0.0100    0.0100    0.0100    0.0100
0.0100    0.0100    0.0100    0.0100    0.0100    0.0100    0.0100    0.0100
0.0100    0.0100    0.0100    0.0100    0.0100    0.0100    0.0100    0.0100
0.0100    0.0100    0.0100    0.0100    0.0100    0.0100    0.0100    0.0100
</PP_RAB>
</PP_MESH>
<PP_LOCAL type="real"  size="600" columns="4">
-5.7057324211E+01   -5.7055162707E+01   -5.7048675678E+01   -5.7037855651E+01
-5.7022690176E+01   -5.7003161863E+01   -5.6979248416E+01   -5.6950922685E+01
-5.6918152737E+01   -5.6880901937E+01   -5.6839129052E+01   -5.6792788377E+01
-5.6741829880E+01   -5.6686199377E+01   -5.6625838734E+01   -5.6560686091E+01
-5.6490676122E+01   -5.6415740323E+01   -5.6335807328E+01   -5.6250803256E+01
-5.6160652089E+01   -5.6065276079E+01   -5.5964596174E+01   -5.5858532477E+01
-5.5747004726E+01   -5.5629932790E+01   -5.5507237186E+01   -5.5378839605E+01
-5.5244663460E+01   -5.5104634426E+01   -5.4958680999E+01   -5.4806735048E+01
-5.4648732368E+01   -5.4484613224E+01   -5.4314322897E+01   -5.4137812205E+01
-5.3955038022E+01   -5.3765963774E+01   -5.3570559919E+01   -5.3368804405E+01
-5.3160683106E+01   -5.2946190229E+01   -5.2725328701E+01   -5.2498110520E+01
-5.2264557079E+01   -5.2024699464E+01   -5.1778578706E+01   -5.1526246010E+01
-5.1267762945E+01   -5.1003201595E+01   -5.0732644676E+01   -5.0456185609E+01
-5.0173928557E+01   -4.9885988417E+01   -4.9592490776E+01   -4.9293571817E+01
-4.8989378182E+01   -4.8680066801E+01   -4.8365804658E+01   -4.8046768529E+01
-4.7723144669E+01   -4.7395128452E+01   -4.7062923973E+01   -4.6726743604E+01
-4.6386807514E+01   -4.6043343145E+01   -4.5696584657E+01   -4.5346772336E+01
-4.4994151974E+01   -4.4638974223E+01   -4.4281493919E+01   -4.3921969397E+01
-4.3560661781E+01   -4.3197834268E+01   -4.2833751397E+01   -4.2468678324E+01
-4.2102880083E+01   -4.1736620864E+01   -4.1370163287E+01   -4.1003767685E+01
-4.0637691407E+01   -4.0272188129E+01   -3.9907507183E+01   -3.9543892909E+01
-3.9181584026E+01   -3.8820813031E+01   -3.8461805619E+01   -3.8104780140E+01
-3.7749947079E+01   -3.7397508571E+01   -3.7047657956E+01   -3.6700579363E+01
-3.6356447333E+01   -3.6015426490E+01   -3.5677671245E+01   -3.5343325546E+01
-3.5012522672E+01   -3.4685385072E+01   -3.4362024254E+01   -3.4042540716E+01
-3.3727023928E+01   -3.3415552362E+01   -3.3108193562E+01   -3.2805004275E+01
-3.2506030608E+01   -3.2211308239E+01   -3.1920862664E+01   -3.1634709470E+01
-3.1352854647E+01   -3.1075294913E+01   -3.0802018055E+01   -3.0533003277E+01
-3.0268221546E+01   -3.0007635921E+01   -2.9751201863E+01   -2.9498867517E+01
-2.9250573950E+01   -2.9006255341E+01   -2.8765839113E+01   -2.8529246134E+01
-2.8296390465E+01   -2.8067179365E+01   -2.7841517811E+01   -2.7619312774E+01
-2.7400476360E+01   -2.7184924700E+01   -2.6972579075E+01   -2.6763366472E+01
-2.6557220465E+01   -2.6354075087E+01   -2.6153860689E+01   -2.5956511808E+01
-2.5761965414E+01   -2.5570158383E+01   -2.5381028579E+01   -2.5194516260E+01
-2.5010566768E+01   -2.4829127014E+01   -2.4650144406E+01   -2.4473568390E+01
-2.4299350178E+01   -2.4127442624E+01   -2.3957800418E+01   -2.3790380189E+01
-2.3625140582E+01   -2.3462042346E+01   -2.3301048384E+01   -2.3142123778E+01
-2.2985235777E+01   -2.2830353752E+01   -2.2677449102E+01   -2.2526495143E+01
-2.2377466949E+01   -2.2230341175E+01   -2.2085095863E+01   -2.1941710233E+01
-2.1800164469E+01   -2.1660439509E+01   -2.1522516863E+01   -2.1386378503E+01
-2.1252006235E+01   -2.1119382233E+01   -2.0988489045E+01   -2.0859308633E+01
-2.0731825105E+01   -2.0606014570E+01   -2.0481838568E+01   -2.0359244630E+01
-2.0238145722E+01   -2.0118459224E+01   -2.0000164253E+01   -1.9883255973E+01
-1.9767705898E+01   -1.9653484324E+01   -1.9540568095E+01   -1.9428934569E+01
-1.9318561283E+01   -1.9209426503E+01   -1.9101509305E+01   -1.8994789487E+01
-1.8889247534E+01   -1.8784864577E+01   -1.8681622358E+01   -1.8579503180E+01
-1.8478489856E+01   -1.8378565659E+01   -1.8279714273E+01   -1.8181919739E+01
-1.8085166410E+01   -1.7989438905E+01   -1.7894722070E+01   -1.7801000942E+01
-1.7708260723E+01   -1.7616486754E+01   -1.7525664503E+01   -1.7435779552E+01
-1.7346817597E+01   -1.7258764446E+01   -1.7171606033E+01   -1.7085328424E+01
-1.6999917835E+01   -1.6915360652E+01   -1.6831643450E+01   -1.6748753013E+01
-1.6666676354E+01   -1.6585400745E+01   -1.6504913745E+01   -1.6425203191E+01
-1.6346257083E+01   -1.6268063717E+01   -1.6190612289E+01   -1.6113892226E+01
-1.6037892776E+01   -1.5962603063E+01   -1.5888012976E+01   -1.5814107366E+01
-1.5740871150E+01   -1.5668293092E+01   -1.5596381121E+01   -1.5525143011E+01
-1.5454571736E+01   -1.5384647977E+01   -1.5315349691E+01   -1.5246670077E+01
-1.5178602626E+01   -1.5111141421E+01   -1.5044277427E+01   -1.4978002526E+01
-1.4912308936E+01   -1.4847189122E+01   -1.4782635567E+01   -1.4718640926E+01
-1.4655197972E+01   -1.4592299607E+01   -1.4529938845E+01   -1.4468108824E+01
-1.4406802796E+01   -1.4346014130E+01   -1.4285736302E+01   -1.4225962900E+01
-1.4166687620E+01   -1.4107904260E+01   -1.4049606721E+01   -1.3991789006E+01
-1.3934445215E+01   -1.3877569545E+01   -1.3821156286E+01   -1.3765199822E+01
-1.3709694628E+01   -1.3654635265E+01   -1.3600016384E+01   -1.3545832720E+01
-1.3492079092E+01   -1.3438750400E+01   -1.3385841625E+01   -1.3333347826E+01
-1.3281264142E+01   -1.3229585783E+01   -1.3178308038E+01   -1.3127426264E+01
-1.3076935895E+01   -1.3026832429E+01   -1.2977111438E+01   -1.2927768558E+01
-1.2878799492E+01   -1.2830200009E+01   -1.2781965939E+01   -1.2734093178E+01
-1.2686577680E+01   -1.2639415462E+01   -1.2592602597E+01   -1.2546135218E+01
-1.2500009515E+01   -1.2454221733E+01   -1.2408768171E+01   -1.2363645185E+01
-1.2318849180E+01   -1.2274376615E+01   -1.2230224000E+01   -1.2186387894E+01
-1.2142864906E+01   -1.2099651693E+01   -1.2056744960E+01   -1.2014141458E+01
-1.1971837983E+01   -1.1929831377E+01   -1.1888118526E+01   -1.1846696360E+01
-1.1805561850E+01   -1.1764712011E+01   -1.1724143897E+01   -1.1683854604E+01
-1.1643841267E+01   -1.1604101061E+01   -1.1564631199E+01   -1.1525428932E+01
-1.1486491546E+01   -1.1447816368E+01   -1.1409400756E+01   -1.1371242107E+01
-1.1333337851E+01   -1.1295685452E+01   -1.1258282409E+01   -1.1221126252E+01
-1.1184214546E+01   -1.1147544885E+01   -1.1111114897E+01   -1.1074922240E+01
-1.1038964602E+01   -1.1003239700E+01   -1.0967745284E+01   -1.0932479129E+01
-1.0897439041E+01   -1.0862622853E+01   -1.0828028425E+01   -1.0793653646E+01
-1.0759496430E+01   -1.0725554719E+01   -1.0691826479E+01   -1.0658309703E+01
-1.0625002407E+01   -1.0591902636E+01   -1.0559008454E+01   -1.0526317953E+01
-1.0493829246E+01   -1.0461540471E+01   -1.0429449788E+01   -1.0397555379E+01
-1.0365855450E+01   -1.0334348226E+01   -1.0303031957E+01   -1.0271904911E+01
-1.0240965379E+01   -1.0210211670E+01   -1.0179642117E+01   -1.0149255069E+01
-1.0119048898E+01   -1.0089021993E+01   -1.0059172763E+01   -1.0029499636E+01
-1.0000001057E+01   -9.9706754923E+00   -9.9415214225E+00   -9.9125373484E+00
-9.8837217872E+00   -9.8550732737E+00   -9.8265903595E+00   -9.7982716129E+00
-9.7701156186E+00   -9.7421209776E+00   -9.7142863069E+00   -9.6866102391E+00
-9.6590914226E+00   -9.6317285210E+00   -9.6045202128E+00   -9.5774651917E+00
-9.5505621659E+00   -9.5238098581E+00   -9.4972070053E+00   -9.4707523587E+00
-9.4444446831E+00   -9.4182827571E+00   -9.3922653729E+00   -9.3663913359E+00
-9.3406594647E+00   -9.3150685908E+00   -9.2896175583E+00   -9.2643052244E+00
-9.2391304581E+00   -9.2140921411E+00   -9.1891891670E+00   -9.1644204414E+00
-9.1397848816E+00   -9.1152814166E+00   -9.0909089869E+00   -9.0666665440E+00
-9.0425530509E+00   -9.0185674814E+00   -8.9947088203E+00   -8.9709760630E+00
-8.9473682155E+00   -8.9238842942E+00   -8.9005233260E+00   -8.8772843477E+00
-8.8541664063E+00   -8.8311685585E+00   -8.8082898712E+00   -8.7855294204E+00
-8.7628862920E+00   -8.7403595812E+00   -8.7179483925E+00   -8.6956518395E+00
-8.6734690449E+00   -8.6513991402E+00   -8.6294412659E+00   -8.6075945712E+00
-8.5858582138E+00   -8.5642313598E+00   -8.5427131838E+00   -8.5213028688E+00
-8.4999996057E+00   -8.4788025937E+00   -8.4577110398E+00   -8.4367241590E+00
-8.4158411740E+00   -8.3950613152E+00   -8.3743838206E+00   -8.3538079355E+00
-8.3333329130E+00   -8.3129580132E+00   -8.2926825033E+00   -8.2725056581E+00
-8.2524267590E+00   -8.2324450945E+00   -8.2125599601E+00   -8.1927706579E+00
-8.1730764968E+00   -8.1534767924E+00   -8.1339708667E+00   -8.1145580483E+00
-8.0952376721E+00   -8.0760090793E+00   -8.0568716175E+00   -8.0378246404E+00
-8.0188675077E+00   -7.9999995852E+00   -7.9812202447E+00   -7.9625288637E+00
-7.9439248259E+00   -7.9254075203E+00   -7.9069763418E+00   -7.8886306910E+00
-7.8703699739E+00   -7.8521936021E+00   -7.8341009924E+00   -7.8160915673E+00
-7.7981647543E+00   -7.7803199863E+00   -7.7625567014E+00   -7.7448743427E+00
-7.7272723584E+00   -7.7097502018E+00   -7.6923073310E+00   -7.6749432092E+00
-7.6576573042E+00   -7.6404490887E+00   -7.6233180401E+00   -7.6062636406E+00
-7.5892853768E+00   -7.5723827400E+00   -7.5555552261E+00   -7.5388023354E+00
-7.5221235725E+00   -7.5055184465E+00   -7.4889864709E+00   -7.4725271633E+00
-7.4561400456E+00   -7.4398246440E+00   -7.4235804887E+00   -7.4074071140E+00
-7.3913040582E+00   -7.3752708639E+00   -7.3593070773E+00   -7.3434122487E+00
-7.3275859323E+00   -7.3118276860E+00   -7.2961370716E+00   -7.2805136547E+00
-7.2649570045E+00   -7.2494666938E+00   -7.2340422993E+00   -7.2186834011E+00
-7.2033895830E+00   -7.1881604320E+00   -7.1729955391E+00   -7.1578944982E+00
-7.1428569070E+00   -7.1278823664E+00   -7.1129704807E+00   -7.0981208575E+00
-7.0833331077E+00   -7.0686068453E+00   -7.0539416876E+00   -7.0393372551E+00
-7.0247931714E+00   -7.0103090632E+00   -6.9958845603E+00   -6.9815192955E+00
-6.9672129046E+00   -6.9529650264E+00   -6.9387753028E+00   -6.9246433783E+00
-6.9105689006E+00   -6.8965515200E+00   -6.8825908899E+00   -6.8686866662E+00
-6.8548385078E+00   -6.8410460763E+00   -6.8273090359E+00   -6.8136270538E+00
-6.7999997994E+00   -6.7864269451E+00   -6.7729081658E+00   -6.7594431390E+00
-6.7460315447E+00   -6.7326730656E+00   -6.7193673866E+00   -6.7061141953E+00
-6.6929131819E+00   -6.6797640387E+00   -6.6666664607E+00   -6.6536201451E+00
-6.6406247915E+00   -6.6276801019E+00   -6.6147857807E+00   -6.6019415343E+00
-6.5891470718E+00   -6.5764021041E+00   -6.5637063447E+00   -6.5510595091E+00
-6.5384613150E+00   -6.5259114824E+00   -6.5134097333E+00   -6.5009557919E+00
-6.4885493846E+00   -6.4761902396E+00   -6.4638780874E+00   -6.4516126606E+00
-6.4393936936E+00   -6.4272209229E+00   -6.4150940872E+00   -6.4030129267E+00
-6.3909771840E+00   -6.3789866035E+00   -6.3670409314E+00   -6.3551399160E+00
-6.3432833071E+00   -6.3314708569E+00   -6.3197023190E+00   -6.3079774490E+00
-6.2962960044E+00   -6.2846577443E+00   -6.2730624297E+00   -6.2615098234E+00
-6.2499996897E+00   -6.2385317950E+00   -6.2271059071E+00   -6.2157217957E+00
-6.2043792320E+00   -6.1930779891E+00   -6.1818178415E+00   -6.1705985655E+00
-6.1594199389E+00   -6.1482817413E+00   -6.1371837537E+00   -6.1261257587E+00
-6.1151075407E+00   -6.1041288852E+00   -6.0931895797E+00   -6.0822894130E+00
-6.0714281754E+00   -6.0606056586E+00   -6.0498216561E+00   -6.0390759626E+00
-6.0283683743E+00   -6.0176986889E+00   -6.0070667055E+00   -5.9964722246E+00
-5.9859150482E+00   -5.9753949795E+00   -5.9649118233E+00   -5.9544653857E+00
-5.9440554739E+00   -5.9336818969E+00   -5.9233444647E+00   -5.9130429887E+00
-5.9027772817E+00   -5.8925471577E+00   -5.8823524320E+00   -5.8721929212E+00
-5.8620684431E+00   -5.8519788169E+00   -5.8419238629E+00   -5.8319034028E+00
-5.8219172592E+00   -5.8119652562E+00   -5.8020472191E+00   -5.7921629743E+00
-5.7823123493E+00   -5.7724951729E+00   -5.7627112750E+00   -5.7529604868E+00
-5.7432426404E+00   -5.7335575691E+00   -5.7239051075E+00   -5.7142850912E+00
-5.7046973567E+00   -5.6951417420E+00   -5.6856180858E+00   -5.6761262281E+00
</PP_LOCAL>
<PP_NONLOCAL>
<PP_BETA.1
type="real"
size="600"
columns="4"
index="1"
angular_momentum="0"
cutoff_radius_index=" 172"
cutoff_radius="    1.7100000000E+00" >
4.9012682801E-11    9.2557987034E-02    1.8484373212E-01    2.7658588688E-01
3.6751488803E-01    4.5736384484E-01    5.4586942044E-01    6.3277270482E-01
7.1782007750E-01    8.0076405744E-01    8.8136413814E-01    9.5938760535E-01
1.0346103351E+00    1.1068175696E+00    1.1758046680E+00    1.2413778301E+00
1.3033547892E+00    1.3615654725E+00    1.4158526254E+00    1.4660723965E+00
1.5120948817E+00    1.5538046231E+00    1.5911010604E+00    1.6238989319E+00
1.6521286228E+00    1.6757364572E+00    1.6946849313E+00    1.7089528868E+00
1.7185356206E+00    1.7234449293E+00    1.7237090878E+00    1.7193727585E+00
1.7104968324E+00    1.6971581989E+00    1.6794494458E+00    1.6574784881E+00
1.6313681268E+00    1.6012555378E+00    1.5672916932E+00    1.5296407149E+00
1.4884791650E+00    1.4439952733E+00    1.3963881067E+00    1.3458666833E+00
1.2926490350E+00    1.2369612237E+00    1.1790363156E+00    1.1191133186E+00
1.0574360886E+00    9.9425221149E-01    9.2981186465E-01    8.6436666755E-01
7.9816852550E-01    7.3146847479E-01    6.6451553552E-01    5.9755557918E-01
5.3083021798E-01    4.6457572251E-01    3.9902197472E-01    3.3439146243E-01
2.7089832183E-01    2.0874743375E-01    1.4813357941E-01    8.9240660643E-02
3.2240989396E-02   -2.2705349317E-02   -7.5451057452E-02   -1.2586210386E-01
-1.7381812171E-01   -2.1921272158E-01   -2.6195371919E-01   -3.0196327718E-01
-3.3917796132E-01   -3.7354871195E-01   -4.0504073228E-01   -4.3363329567E-01
-4.5931947499E-01   -4.8210579719E-01   -5.0201182739E-01   -5.1906968691E-01
-5.3332351027E-01   -5.4482884673E-01   -5.5365201203E-01   -5.5986939670E-01
-5.6356673712E-01   -5.6483835608E-01   -5.6378637947E-01   -5.6051993579E-01
-5.5515434530E-01   -5.4781030538E-01   -5.3861307859E-01   -5.2769168959E-01
-5.1517813701E-01   -5.0120662582E-01   -4.8591282533E-01   -4.6943315772E-01
-4.5190412126E-01   -4.3346165199E-01   -4.1424052707E-01   -3.9437381234E-01
-3.7399235607E-01   -3.5322433034E-01   -3.3219482072E-01   -3.1102546450E-01
-2.8983413691E-01   -2.6873468447E-01   -2.4783670365E-01   -2.2724536311E-01
-2.0706126655E-01   -1.8738035357E-01   -1.6829383482E-01   -1.4988815804E-01
-1.3224500076E-01   -1.1544128567E-01   -9.9549214217E-02   -8.4636314092E-02
-7.0765496052E-02   -5.7995116160E-02   -4.6379038360E-02   -3.5966686039E-02
-2.6803112827E-02   -1.8929042741E-02   -1.2382114340E-02   -7.1903868363E-03
-3.3583716024E-03   -1.0066719953E-03   -3.4371494480E-05    8.8939048851E-05
-1.9403503223E-05   -1.1640551485E-05    5.3551339845E-06   -4.7069111617E-08
-6.2301960204E-08    0.0000000000E+00    0.0000000000E+00    0.0000000000E+00
0.0000000000E+00    0.0000000000E+00    0.0000000000E+00    0.0000000000E+00
0.0000000000E+00    0.0000000000E+00    0.0000000000E+00    0.0000000000E+00
0.0000000000E+00    0.0000000000E+00    0.0000000000E+00    0.0000000000E+00
0.0000000000E+00    0.0000000000E+00    0.0000000000E+00    0.0000000000E+00
0.0000000000E+00    0.0000000000E+00    0.0000000000E+00    0.0000000000E+00
0.0000000000E+00    0.0000000000E+00    0.0000000000E+00    0.0000000000E+00
0.0000000000E+00    0.0000000000E+00    0.0000000000E+00    0.0000000000E+00
0.0000000000E+00    0.0000000000E+00    0.0000000000E+00    0.0000000000E+00
0.0000000000E+00    0.0000000000E+00    0.0000000000E+00    0.0000000000E+00
0. 0. 0. 0.
0. 0. 0. 0.
0. 0. 0. 0.
0. 0. 0. 0.
0. 0. 0. 0.
0. 0. 0. 0.
0. 0. 0. 0.
0. 0. 0. 0.
0. 0. 0. 0.
0. 0. 0. 0.
0. 0. 0. 0.
0. 0. 0. 0.
0. 0. 0. 0.
0. 0. 0. 0.
0. 0. 0. 0.
0. 0. 0. 0.
0. 0. 0. 0.
0. 0. 0. 0.
0. 0. 0. 0.
0. 0. 0. 0.
0. 0. 0. 0.
0. 0. 0. 0.
0. 0. 0. 0.
0. 0. 0. 0.
0. 0. 0. 0.
0. 0. 0. 0.
0. 0. 0. 0.
0. 0. 0. 0.
0. 0. 0. 0.
0. 0. 0. 0.
0. 0. 0. 0.
0. 0. 0. 0.
0. 0. 0. 0.
0. 0. 0. 0.
0. 0. 0. 0.
0. 0. 0. 0.
0. 0. 0. 0.
0. 0. 0. 0.
0. 0. 0. 0.
0. 0. 0. 0.
0. 0. 0. 0.
0. 0. 0. 0.
0. 0. 0. 0.
0. 0. 0. 0.
0. 0. 0. 0.
0. 0. 0. 0.
0. 0. 0. 0.
0. 0. 0. 0.
0. 0. 0. 0.
0. 0. 0. 0.
0. 0. 0. 0.
0. 0. 0. 0.
0. 0. 0. 0.
0. 0. 0. 0.
0. 0. 0. 0.
0. 0. 0. 0.
0. 0. 0. 0.
0. 0. 0. 0.
0. 0. 0. 0.
0. 0. 0. 0.
0. 0. 0. 0.
0. 0. 0. 0.
0. 0. 0. 0.
0. 0. 0. 0.
0. 0. 0. 0.
0. 0. 0. 0.
0. 0. 0. 0.
0. 0. 0. 0.
0. 0. 0. 0.
0. 0. 0. 0.