<UPF version="2.0.1">
<PP_INFO>
NOTE!!!!
This file is trimmed with a mesh size of 600 from the original version.
Trimming performed at 2023-03-31 09:10:05.016742 by trim_upf.py version 0.1.0

This pseudopotential file has been produced using the code
ONCVPSP  (Optimized Norm-Conservinng Vanderbilt PSeudopotential)
scalar-relativistic version 3.3.0 08/16/2017 by D. R. Hamann
The code is available through a link at URL www.mat-simresearch.com.
Documentation with the package provides a full discription of the
input data below.
While it is not required under the terms of the GNU GPL, it is
suggested that you cite D. R. Hamann, Phys. Rev. B 88, 085117 (2013)
in any publication using these pseudopotentials.
<PP_INPUTFILE>
# ATOM AND REFERENCE CONFIGURATION
# atsym  z   nc   nv     iexc    psfile
Cr 24.00    3    4       4      upf
#
#   n    l    f        energy (Ha)
1    0    2.00
2    0    2.00
2    1    6.00
3    0    2.00
3    1    6.00
3    2    5.00
4    0    1.00
#
# PSEUDOPOTENTIAL AND OPTIMIZATION
# lmax
2
#
#   l,   rc,      ep,       ncon, nbas, qcut
0   1.30000  -2.71914    4    8   8.90000
1   1.30000  -1.67001    4    7  10.00000
2   1.70000  -0.10706    4    8  10.00000
#
# LOCAL POTENTIAL
# lloc, lpopt,  rc(5),   dvloc0
4    5   1.30000      0.00000
#
# VANDERBILT-KLEINMAN-BYLANDER PROJECTORs
# l, nproj, debl
0    2   2.57187
1    2   1.63368
2    2   1.00000
#
# MODEL CORE CHARGE
# icmod, fcfact, rcfact
3   5.00000   1.32000
#
# LOG DERIVATIVE ANALYSIS
# epsh1, epsh2, depsh
-18.00   12.00    0.02
#
# OUTPUT GRID
# rlmax, drl
6.00    0.01
#
# TEST CONFIGURATIONS
# ncnf
0
# nvcnf
#   n    l    f
</PP_INPUTFILE>
</PP_INFO>
<!--                               -->
<!-- END OF HUMAN READABLE SECTION -->
<!--                               -->
<PP_HEADER
generated="Generated using ONCVPSP code by D. R. Hamann"
author="anonymous"
date="171031"
comment=""
element="Cr"
pseudo_type="NC"
relativistic="scalar"
is_ultrasoft="F"
is_paw="F"
is_coulomb="F"
has_so="F"
has_wfc="F"
has_gipaw="F"
core_correction="T"
functional="PBE"
z_valence="   14.00"
total_psenergy="  -1.72124902269E+02"
rho_cutoff="   1.63700000000E+01"
l_max="2"
l_local="-1"
mesh_size="   600"
number_of_wfc="4"
number_of_proj="6"/>
<PP_MESH>
<PP_R type="real"  size="600" columns="8">
0.0000    0.0100    0.0200    0.0300    0.0400    0.0500    0.0600    0.0700
0.0800    0.0900    0.1000    0.1100    0.1200    0.1300    0.1400    0.1500
0.1600    0.1700    0.1800    0.1900    0.2000    0.2100    0.2200    0.2300
0.2400    0.2500    0.2600    0.2700    0.2800    0.2900    0.3000    0.3100
0.3200    0.3300    0.3400    0.3500    0.3600    0.3700    0.3800    0.3900
0.4000    0.4100    0.4200    0.4300    0.4400    0.4500    0.4600    0.4700
0.4800    0.4900    0.5000    0.5100    0.5200    0.5300    0.5400    0.5500
0.5600    0.5700    0.5800    0.5900    0.6000    0.6100    0.6200    0.6300
0.6400    0.6500    0.6600    0.6700    0.6800    0.6900    0.7000    0.7100
0.7200    0.7300    0.7400    0.7500    0.7600    0.7700    0.7800    0.7900
0.8000    0.8100    0.8200    0.8300    0.8400    0.8500    0.8600    0.8700
0.8800    0.8900    0.9000    0.9100    0.9200    0.9300    0.9400    0.9500
0.9600    0.9700    0.9800    0.9900    1.0000    1.0100    1.0200    1.0300
1.0400    1.0500    1.0600    1.0700    1.0800    1.0900    1.1000    1.1100
1.1200    1.1300    1.1400    1.1500    1.1600    1.1700    1.1800    1.1900
1.2000    1.2100    1.2200    1.2300    1.2400    1.2500    1.2600    1.2700
1.2800    1.2900    1.3000    1.3100    1.3200    1.3300    1.3400    1.3500
1.3600    1.3700    1.3800    1.3900    1.4000    1.4100    1.4200    1.4300
1.4400    1.4500    1.4600    1.4700    1.4800    1.4900    1.5000    1.5100
1.5200    1.5300    1.5400    1.5500    1.5600    1.5700    1.5800    1.5900
1.6000    1.6100    1.6200    1.6300    1.6400    1.6500    1.6600    1.6700
1.6800    1.6900    1.7000    1.7100    1.7200    1.7300    1.7400    1.7500
1.7600    1.7700    1.7800    1.7900    1.8000    1.8100    1.8200    1.8300
1.8400    1.8500    1.8600    1.8700    1.8800    1.8900    1.9000    1.9100
1.9200    1.9300    1.9400    1.9500    1.9600    1.9700    1.9800    1.9900
2.0000    2.0100    2.0200    2.0300    2.0400    2.0500    2.0600    2.0700
2.0800    2.0900    2.1000    2.1100    2.1200    2.1300    2.1400    2.1500
2.1600    2.1700    2.1800    2.1900    2.2000    2.2100    2.2200    2.2300
2.2400    2.2500    2.2600    2.2700    2.2800    2.2900    2.3000    2.3100
2.3200    2.3300    2.3400    2.3500    2.3600    2.3700    2.3800    2.3900
2.4000    2.4100    2.4200    2.4300    2.4400    2.4500    2.4600    2.4700
2.4800    2.4900    2.5000    2.5100    2.5200    2.5300    2.5400    2.5500
2.5600    2.5700    2.5800    2.5900    2.6000    2.6100    2.6200    2.6300
2.6400    2.6500    2.6600    2.6700    2.6800    2.6900    2.7000    2.7100
2.7200    2.7300    2.7400    2.7500    2.7600    2.7700    2.7800    2.7900
2.8000    2.8100    2.8200    2.8300    2.8400    2.8500    2.8600    2.8700
2.8800    2.8900    2.9000    2.9100    2.9200    2.9300    2.9400    2.9500
2.9600    2.9700    2.9800    2.9900    3.0000    3.0100    3.0200    3.0300
3.0400    3.0500    3.0600    3.0700    3.0800    3.0900    3.1000    3.1100
3.1200    3.1300    3.1400    3.1500    3.1600    3.1700    3.1800    3.1900
3.2000    3.2100    3.2200    3.2300    3.2400    3.2500    3.2600    3.2700
3.2800    3.2900    3.3000    3.3100    3.3200    3.3300    3.3400    3.3500
3.3600    3.3700    3.3800    3.3900    3.4000    3.4100    3.4200    3.4300
3.4400    3.4500    3.4600    3.4700    3.4800    3.4900    3.5000    3.5100
3.5200    3.5300    3.5400    3.5500    3.5600    3.5700    3.5800    3.5900
3.6000    3.6100    3.6200    3.6300    3.6400    3.6500    3.6600    3.6700
3.6800    3.6900    3.7000    3.7100    3.7200    3.7300    3.7400    3.7500
3.7600    3.7700    3.7800    3.7900    3.8000    3.8100    3.8200    3.8300
3.8400    3.8500    3.8600    3.8700    3.8800    3.8900    3.9000    3.9100
3.9200    3.9300    3.9400    3.9500    3.9600    3.9700    3.9800    3.9900
4.0000    4.0100    4.0200    4.0300    4.0400    4.0500    4.0600    4.0700
4.0800    4.0900    4.1000    4.1100    4.1200    4.1300    4.1400    4.1500
4.1600    4.1700    4.1800    4.1900    4.2000    4.2100    4.2200    4.2300
4.2400    4.2500    4.2600    4.2700    4.2800    4.2900    4.3000    4.3100
4.3200    4.3300    4.3400    4.3500    4.3600    4.3700    4.3800    4.3900
4.4000    4.4100    4.4200    4.4300    4.4400    4.4500    4.4600    4.4700
4.4800    4.4900    4.5000    4.5100    4.5200    4.5300    4.5400    4.5500
4.5600    4.5700    4.5800    4.5900    4.6000    4.6100    4.6200    4.6300
4.6400    4.6500    4.6600    4.6700    4.6800    4.6900    4.7000    4.7100
4.7200    4.7300    4.7400    4.7500    4.7600    4.7700    4.7800    4.7900
4.8000    4.8100    4.8200    4.8300    4.8400    4.8500    4.8600    4.8700
4.8800    4.8900    4.9000    4.9100    4.9200    4.9300    4.9400    4.9500
4.9600    4.9700    4.9800    4.9900    5.0000    5.0100    5.0200    5.0300
5.0400    5.0500    5.0600    5.0700    5.0800    5.0900    5.1000    5.1100
5.1200    5.1300    5.1400    5.1500    5.1600    5.1700    5.1800    5.1900
5.2000    5.2100    5.2200    5.2300    5.2400    5.2500    5.2600    5.2700
5.2800    5.2900    5.3000    5.3100    5.3200    5.3300    5.3400    5.3500
5.3600    5.3700    5.3800    5.3900    5.4000    5.4100    5.4200    5.4300
5.4400    5.4500    5.4600    5.4700    5.4800    5.4900    5.5000    5.5100
5.5200    5.5300    5.5400    5.5500    5.5600    5.5700    5.5800    5.5900
5.6000    5.6100    5.6200    5.6300    5.6400    5.6500    5.6600    5.6700
5.6800    5.6900    5.7000    5.7100    5.7200    5.7300    5.7400    5.7500
5.7600    5.7700    5.7800    5.7900    5.8000    5.8100    5.8200    5.8300
5.8400    5.8500    5.8600    5.8700    5.8800    5.8900    5.9000    5.9100
5.9200    5.9300    5.9400    5.9500    5.9600    5.9700    5.9800    5.9900
</PP_R>
<PP_RAB type="real"  size="600" columns="8">
0.0100    0.0100    0.0100    0.0100    0.0100    0.0100    0.0100    0.0100
0.0100    0.0100    0.0100    0.0100    0.0100    0.0100    0.0100    0.0100
0.0100    0.0100    0.0100    0.0100    0.0100    0.0100    0.0100    0.0100
0.0100    0.0100    0.0100    0.0100    0.0100    0.0100    0.0100    0.0100
0.0100    0.0100    0.0100    0.0100    0.0100    0.0100    0.0100    0.0100
0.0100    0.0100    0.0100    0.0100    0.0100    0.0100    0.0100    0.0100
0.0100    0.0100    0.0100    0.0100    0.0100    0.0100    0.0100    0.0100
0.0100    0.0100    0.0100    0.0100    0.0100    0.0100    0.0100    0.0100
0.0100    0.0100    0.0100    0.0100    0.0100    0.0100    0.0100    0.0100
0.0100    0.0100    0.0100    0.0100    0.0100    0.0100    0.0100    0.0100
0.0100    0.0100    0.0100    0.0100    0.0100    0.0100    0.0100    0.0100
0.0100    0.0100    0.0100    0.0100    0.0100    0.0100    0.0100    0.0100
0.0100    0.0100    0.0100    0.0100    0.0100    0.0100    0.0100    0.0100
0.0100    0.0100    0.0100    0.0100    0.0100    0.0100    0.0100    0.0100
0.0100    0.0100    0.0100    0.0100    0.0100    0.0100    0.0100    0.0100
0.0100    0.0100    0.0100    0.0100    0.0100    0.0100    0.0100    0.0100
0.0100    0.0100    0.0100    0.0100    0.0100    0.0100    0.0100    0.0100
0.0100    0.0100    0.0100    0.0100    0.0100    0.0100    0.0100    0.0100
0.0100    0.0100    0.0100    0.0100    0.0100    0.0100    0.0100    0.0100
0.0100    0.0100    0.0100    0.0100    0.0100    0.0100    0.0100    0.0100
0.0100    0.0100    0.0100    0.0100    0.0100    0.0100    0.0100    0.0100
0.0100    0.0100    0.0100    0.0100    0.0100    0.0100    0.0100    0.0100
0.0100    0.0100    0.0100    0.0100    0.0100    0.0100    0.0100    0.0100
0.0100    0.0100    0.0100    0.0100    0.0100    0.0100    0.0100    0.0100
0.0100    0.0100    0.0100    0.0100    0.0100    0.0100    0.0100    0.0100
0.0100    0.0100    0.0100    0.0100    0.0100    0.0100    0.0100    0.0100
0.0100    0.0100    0.0100    0.0100    0.0100    0.0100    0.0100    0.0100
0.0100    0.0100    0.0100    0.0100    0.0100    0.0100    0.0100    0.0100
0.0100    0.0100    0.0100    0.0100    0.0100    0.0100    0.0100    0.0100
0.0100    0.0100    0.0100    0.0100    0.0100    0.0100    0.0100    0.0100
0.0100    0.0100    0.0100    0.0100    0.0100    0.0100    0.0100    0.0100
0.0100    0.0100    0.0100    0.0100    0.0100    0.0100    0.0100    0.0100
0.0100    0.0100    0.0100    0.0100    0.0100    0.0100    0.0100    0.0100
0.0100    0.0100    0.0100    0.0100    0.0100    0.0100    0.0100    0.0100
0.0100    0.0100    0.0100    0.0100    0.0100    0.0100    0.0100    0.0100
0.0100    0.0100    0.0100    0.0100    0.0100    0.0100    0.0100    0.0100
0.0100    0.0100    0.0100    0.0100    0.0100    0.0100    0.0100    0.0100
0.0100    0.0100    0.0100    0.0100    0.0100    0.0100    0.0100    0.0100
0.0100    0.0100    0.0100    0.0100    0.0100    0.0100    0.0100    0.0100
0.0100    0.0100    0.0100    0.0100    0.0100    0.0100    0.0100    0.0100
0.0100    0.0100    0.0100    0.0100    0.0100    0.0100    0.0100    0.0100
0.0100    0.0100    0.0100    0.0100    0.0100    0.0100    0.0100    0.0100
0.0100    0.0100    0.0100    0.0100    0.0100    0.0100    0.0100    0.0100
0.0100    0.0100    0.0100    0.0100    0.0100    0.0100    0.0100    0.0100
0.0100    0.0100    0.0100    0.0100    0.0100    0.0100    0.0100    0.0100
0.0100    0.0100    0.0100    0.0100    0.0100    0.0100    0.0100    0.0100
0.0100    0.0100    0.0100    0.0100    0.0100    0.0100    0.0100    0.0100
0.0100    0.0100    0.0100    0.0100    0.0100    0.0100    0.0100    0.0100
0.0100    0.0100    0.0100    0.0100    0.0100    0.0100    0.0100    0.0100
0.0100    0.0100    0.0100    0.0100    0.0100    0.0100    0.0100    0.0100
0.0100    0.0100    0.0100    0.0100    0.0100    0.0100    0.0100    0.0100
0.0100    0.0100    0.0100    0.0100    0.0100    0.0100    0.0100    0.0100
0.0100    0.0100    0.0100    0.0100    0.0100    0.0100    0.0100    0.0100
0.0100    0.0100    0.0100    0.0100    0.0100    0.0100    0.0100    0.0100
0.0100    0.0100    0.0100    0.0100    0.0100    0.0100    0.0100    0.0100
0.0100    0.0100    0.0100    0.0100    0.0100    0.0100    0.0100    0.0100
0.0100    0.0100    0.0100    0.0100    0.0100    0.0100    0.0100    0.0100
0.0100    0.0100    0.0100    0.0100    0.0100    0.0100    0.0100    0.0100
0.0100    0.0100    0.0100    0.0100    0.0100    0.0100    0.0100    0.0100
0.0100    0.0100    0.0100    0.0100    0.0100    0.0100    0.0100    0.0100
0.0100    0.0100    0.0100    0.0100    0.0100    0.0100    0.0100    0.0100
0.0100    0.0100    0.0100    0.0100    0.0100    0.0100    0.0100    0.0100
0.0100    0.0100    0.0100    0.0100    0.0100    0.0100    0.0100    0.0100
0.0100    0.0100    0.0100    0.0100    0.0100    0.0100    0.0100    0.0100
0.0100    0.0100    0.0100    0.0100    0.0100    0.0100    0.0100    0.0100
0.0100    0.0100    0.0100    0.0100    0.0100    0.0100    0.0100    0.0100
0.0100    0.0100    0.0100    0.0100    0.0100    0.0100    0.0100    0.0100
0.0100    0.0100    0.0100    0.0100    0.0100    0.0100    0.0100    0.0100
0.0100    0.0100    0.0100    0.0100    0.0100    0.0100    0.0100    0.0100
0.0100    0.0100    0.0100    0.0100    0.0100    0.0100    0.0100    0.0100
0.0100    0.0100    0.0100    0.0100    0.0100    0.0100    0.0100    0.0100
0.0100    0.0100    0.0100    0.0100    0.0100    0.0100    0.0100    0.0100
0.0100    0.0100    0.0100    0.0100    0.0100    0.0100    0.0100    0.0100
0.0100    0.0100    0.0100    0.0100    0.0100    0.0100    0.0100    0.0100
0.0100    0.0100    0.0100    0.0100    0.0100    0.0100    0.0100    0.0100
</PP_RAB>
</PP_MESH>
<PP_LOCAL type="real"  size="600" columns="4">
-4.3926064241E+01   -4.3924551778E+01   -4.3919984336E+01   -4.3912395091E+01
-4.3901827663E+01   -4.3888337685E+01   -4.3871991495E+01   -4.3852863187E+01
-4.3831031248E+01   -4.3806575105E+01   -4.3779571760E+01   -4.3750092697E+01
-4.3718201149E+01   -4.3683949820E+01   -4.3647379104E+01   -4.3608515782E+01
-4.3567372194E+01   -4.3523945831E+01   -4.3478219290E+01   -4.3430160527E+01
-4.3379723340E+01   -4.3326848021E+01   -4.3271462127E+01   -4.3213481314E+01
-4.3152810199E+01   -4.3089343233E+01   -4.3022965544E+01   -4.2953553769E+01
-4.2880976834E+01   -4.2805096715E+01   -4.2725769161E+01   -4.2642844396E+01
-4.2556167803E+01   -4.2465580605E+01   -4.2370920543E+01   -4.2272022578E+01
-4.2168719634E+01   -4.2060843404E+01   -4.1948225261E+01   -4.1830697326E+01
-4.1708093755E+01   -4.1580252323E+01   -4.1447016379E+01   -4.1308237269E+01
-4.1163777261E+01   -4.1013513013E+01   -4.0857339531E+01   -4.0695174503E+01
-4.0526962765E+01   -4.0352680612E+01   -4.0172339519E+01   -3.9985988859E+01
-3.9793717179E+01   -3.9595651722E+01   -3.9391956027E+01   -3.9182825681E+01
-3.8968482518E+01   -3.8749167764E+01   -3.8525134787E+01   -3.8296642121E+01
-3.8063947368E+01   -3.7827302427E+01   -3.7586950273E+01   -3.7343123324E+01
-3.7096043216E+01   -3.6845921705E+01   -3.6592962366E+01   -3.6337362714E+01
-3.6079316476E+01   -3.5819015725E+01   -3.5556652727E+01   -3.5292421358E+01
-3.5026518038E+01   -3.4759142153E+01   -3.4490495992E+01   -3.4220784233E+01
-3.3950213055E+01   -3.3678988957E+01   -3.3407317391E+01   -3.3135401279E+01
-3.2863439545E+01   -3.2591625709E+01   -3.2320146635E+01   -3.2049181474E+01
-3.1778900826E+01   -3.1509466150E+01   -3.1241029396E+01   -3.0973732864E+01
-3.0707709250E+01   -3.0443081858E+01   -3.0179964932E+01   -2.9918464097E+01
-2.9658676849E+01   -2.9400693098E+01   -2.9144595718E+01   -2.8890461099E+01
-2.8638359682E+01   -2.8388356462E+01   -2.8140511469E+01   -2.7894880197E+01
-2.7651514003E+01   -2.7410460456E+01   -2.7171763650E+01   -2.6935464468E+01
-2.6701600818E+01   -2.6470207818E+01   -2.6241317953E+01   -2.6014961190E+01
-2.5791165069E+01   -2.5569954754E+01   -2.5351353058E+01   -2.5135380446E+01
-2.4922055001E+01   -2.4711392379E+01   -2.4503405736E+01   -2.4298105642E+01
-2.4095499969E+01   -2.3895593778E+01   -2.3698389184E+01   -2.3503885217E+01
-2.3312077676E+01   -2.3122958977E+01   -2.2936517995E+01   -2.2752739918E+01
-2.2571606087E+01   -2.2393093821E+01   -2.2217176387E+01   -2.2043822689E+01
-2.1872997100E+01   -2.1704659091E+01   -2.1538765922E+01   -2.1375276495E+01
-2.1214158629E+01   -2.1055386088E+01   -2.0898910010E+01   -2.0744675400E+01
-2.0592636754E+01   -2.0442748897E+01   -2.0294967359E+01   -2.0149249268E+01
-2.0005553020E+01   -1.9863838243E+01   -1.9724065779E+01   -1.9586197643E+01
-1.9450196990E+01   -1.9316028080E+01   -1.9183656245E+01   -1.9053047850E+01
-1.8924170257E+01   -1.8796991791E+01   -1.8671481694E+01   -1.8547610091E+01
-1.8425347947E+01   -1.8304667024E+01   -1.8185539840E+01   -1.8067939628E+01
-1.7951840295E+01   -1.7837216380E+01   -1.7724043021E+01   -1.7612295914E+01
-1.7501951281E+01   -1.7392985842E+01   -1.7285376783E+01   -1.7179101737E+01
-1.7074138772E+01   -1.6970466357E+01   -1.6868063292E+01   -1.6766908877E+01
-1.6666982809E+01   -1.6568265251E+01   -1.6470736821E+01   -1.6374376527E+01
-1.6279161042E+01   -1.6185064042E+01   -1.6092054032E+01   -1.6000102781E+01
-1.5909194106E+01   -1.5819314451E+01   -1.5730445415E+01   -1.5642568896E+01
-1.5555668344E+01   -1.5469727531E+01   -1.5384730632E+01   -1.5300662112E+01
-1.5217506707E+01   -1.5135249474E+01   -1.5053875002E+01   -1.4973367436E+01
-1.4893712937E+01   -1.4814902123E+01   -1.4736925802E+01   -1.4659768821E+01
-1.4583415429E+01   -1.4507852466E+01   -1.4433068333E+01   -1.4359051439E+01
-1.4285789873E+01   -1.4213272071E+01   -1.4141486796E+01   -1.4070422998E+01
-1.4000069854E+01   -1.3930416757E+01   -1.3861453312E+01   -1.3793169325E+01
-1.3725554804E+01   -1.3658599953E+01   -1.3592295162E+01   -1.3526631012E+01
-1.3461598262E+01   -1.3397187847E+01   -1.3333390879E+01   -1.3270198633E+01
-1.3207602553E+01   -1.3145594242E+01   -1.3084165459E+01   -1.3023308118E+01
-1.2963014282E+01   -1.2903276161E+01   -1.2844086106E+01   -1.2785436610E+01
-1.2727320302E+01   -1.2669729942E+01   -1.2612658425E+01   -1.2556098769E+01
-1.2500044120E+01   -1.2444487743E+01   -1.2389423024E+01   -1.2334843466E+01
-1.2280742685E+01   -1.2227114408E+01   -1.2173952473E+01   -1.2121250821E+01
-1.2069003503E+01   -1.2017204667E+01   -1.1965848565E+01   -1.1914929543E+01
-1.1864442045E+01   -1.1814380610E+01   -1.1764739867E+01   -1.1715514534E+01
-1.1666699420E+01   -1.1618289417E+01   -1.1570279504E+01   -1.1522664741E+01
-1.1475440269E+01   -1.1428601310E+01   -1.1382143161E+01   -1.1336061199E+01
-1.1290350871E+01   -1.1245007700E+01   -1.1200027281E+01   -1.1155405277E+01
-1.1111137422E+01   -1.1067219516E+01   -1.1023647426E+01   -1.0980417084E+01
-1.0937524483E+01   -1.0894965683E+01   -1.0852736801E+01   -1.0810834015E+01
-1.0769253564E+01   -1.0727991742E+01   -1.0687044900E+01   -1.0646409446E+01
-1.0606081840E+01   -1.0566058599E+01   -1.0526336288E+01   -1.0486911527E+01
-1.0447780985E+01   -1.0408941381E+01   -1.0370389481E+01   -1.0332122102E+01
-1.0294136103E+01   -1.0256428395E+01   -1.0218995929E+01   -1.0181835702E+01
-1.0144944756E+01   -1.0108320174E+01   -1.0071959082E+01   -1.0035858646E+01
-1.0000016074E+01   -9.9644286123E+00   -9.9290935469E+00   -9.8940082024E+00
-9.8591699407E+00   -9.8245761610E+00   -9.7902242987E+00   -9.7561118250E+00
-9.7222362463E+00   -9.6885951032E+00   -9.6551859707E+00   -9.6220064568E+00
-9.5890542024E+00   -9.5563268804E+00   -9.5238221957E+00   -9.4915378842E+00
-9.4594717121E+00   -9.4276214762E+00   -9.3959850024E+00   -9.3645601460E+00
-9.3333447907E+00   -9.3023368486E+00   -9.2715342590E+00   -9.2409349889E+00
-9.2105370318E+00   -9.1803384074E+00   -9.1503371615E+00   -9.1205313653E+00
-9.0909191150E+00   -9.0614985315E+00   -9.0322677600E+00   -9.0032249694E+00
-8.9743683522E+00   -8.9456961239E+00   -8.9172065230E+00   -8.8888978099E+00
-8.8607682674E+00   -8.8328161999E+00   -8.8050399330E+00   -8.7774378135E+00
-8.7500082086E+00   -8.7227495061E+00   -8.6956601137E+00   -8.6687384588E+00
-8.6419829882E+00   -8.6153921680E+00   -8.5889644830E+00   -8.5626984364E+00
-8.5365925499E+00   -8.5106453629E+00   -8.4848554328E+00   -8.4592213343E+00
-8.4337416592E+00   -8.4084150164E+00   -8.3832400311E+00   -8.3582153454E+00
-8.3333396172E+00   -8.3086115205E+00   -8.2840297449E+00   -8.2595929955E+00
-8.2352999927E+00   -8.2111494719E+00   -8.1871401831E+00   -8.1632708912E+00
-8.1395403751E+00   -8.1159474281E+00   -8.0924908575E+00   -8.0691694841E+00
-8.0459821425E+00   -8.0229276805E+00   -8.0000049591E+00   -7.9772128524E+00
-7.9545502470E+00   -7.9320160425E+00   -7.9096091507E+00   -7.8873284957E+00
-7.8651730137E+00   -7.8431416527E+00   -7.8212333728E+00   -7.7994471453E+00
-7.7777819530E+00   -7.7562367903E+00   -7.7348106623E+00   -7.7135025853E+00
-7.6923115863E+00   -7.6712367030E+00   -7.6502769837E+00   -7.6294314870E+00
-7.6086992816E+00   -7.5880794465E+00   -7.5675710706E+00   -7.5471732526E+00
-7.5268851009E+00   -7.5067057334E+00   -7.4866342776E+00   -7.4666698701E+00
-7.4468116568E+00   -7.4270587926E+00   -7.4074104416E+00   -7.3878657763E+00
-7.3684239781E+00   -7.3490842372E+00   -7.3298457520E+00   -7.3107077293E+00
-7.2916693844E+00   -7.2727299404E+00   -7.2538886288E+00   -7.2351446887E+00
-7.2164973673E+00   -7.1979459196E+00   -7.1794896079E+00   -7.1611277023E+00
-7.1428594804E+00   -7.1246842269E+00   -7.1066012340E+00   -7.0886098011E+00
-7.0707092343E+00   -7.0528988472E+00   -7.0351779598E+00   -7.0175458994E+00
-7.0000019996E+00   -6.9825456010E+00   -6.9651760505E+00   -6.9478927016E+00
-6.9306949142E+00   -6.9135820546E+00   -6.8965534950E+00   -6.8796086143E+00
-6.8627467970E+00   -6.8459674339E+00   -6.8292699218E+00   -6.8126536630E+00
-6.7961180660E+00   -6.7796625449E+00   -6.7632865193E+00   -6.7469894147E+00
-6.7307706618E+00   -6.7146296970E+00   -6.6985659620E+00   -6.6825789038E+00
-6.6666679748E+00   -6.6508326324E+00   -6.6350723393E+00   -6.6193865632E+00
-6.6037747769E+00   -6.5882364581E+00   -6.5727710893E+00   -6.5573781582E+00
-6.5420571569E+00   -6.5268075825E+00   -6.5116289365E+00   -6.4965207253E+00
-6.4814824598E+00   -6.4665136553E+00   -6.4516138317E+00   -6.4367825133E+00
-6.4220192287E+00   -6.4073235108E+00   -6.3926948969E+00   -6.3781329283E+00
-6.3636371507E+00   -6.3492071139E+00   -6.3348423715E+00   -6.3205424814E+00
-6.3063070054E+00   -6.2921355093E+00   -6.2780275627E+00   -6.2639827391E+00
-6.2500006158E+00   -6.2360807739E+00   -6.2222227981E+00   -6.2084262769E+00
-6.1946908024E+00   -6.1810159704E+00   -6.1674013801E+00   -6.1538466343E+00
-6.1403513394E+00   -6.1269151050E+00   -6.1135375442E+00   -6.1002182737E+00
-6.0869569131E+00   -6.0737530858E+00   -6.0606064180E+00   -6.0475165395E+00
-6.0344830829E+00   -6.0215056845E+00   -6.0085839831E+00   -5.9957176211E+00
-5.9829062437E+00   -5.9701494991E+00   -5.9574470387E+00   -5.9447985168E+00
-5.9322035904E+00   -5.9196619196E+00   -5.9071731674E+00   -5.8947369995E+00
-5.8823530846E+00   -5.8700210940E+00   -5.8577407018E+00   -5.8455115848E+00
-5.8333334227E+00   -5.8212058975E+00   -5.8091286941E+00   -5.7971014999E+00
-5.7851240050E+00   -5.7731959019E+00   -5.7613168859E+00   -5.7494866543E+00
-5.7377049075E+00   -5.7259713479E+00   -5.7142856804E+00   -5.7026476125E+00
-5.6910568540E+00   -5.6795131169E+00   -5.6680161156E+00   -5.6565655671E+00
-5.6451611901E+00   -5.6338027062E+00   -5.6224898387E+00   -5.6112223135E+00
-5.5999998585E+00   -5.5888222038E+00   -5.5776890817E+00   -5.5666002265E+00
-5.5555553749E+00   -5.5445542653E+00   -5.5335966385E+00   -5.5226822371E+00
-5.5118108059E+00   -5.5009820916E+00   -5.4901958429E+00   -5.4794518106E+00
-5.4687497472E+00   -5.4580894073E+00   -5.4474705475E+00   -5.4368929260E+00
-5.4263563031E+00   -5.4158604409E+00   -5.4054051034E+00   -5.3949900563E+00
-5.3846150671E+00   -5.3742799052E+00   -5.3639843418E+00   -5.3537281495E+00
-5.3435111031E+00   -5.3333329789E+00   -5.3231935548E+00   -5.3130926106E+00
-5.3030299276E+00   -5.2930052889E+00   -5.2830184790E+00   -5.2730692844E+00
-5.2631574927E+00   -5.2532828936E+00   -5.2434452781E+00   -5.2336444388E+00
-5.2238801698E+00   -5.2141522669E+00   -5.2044605273E+00   -5.1948047497E+00
-5.1851847342E+00   -5.1756002827E+00   -5.1660511982E+00   -5.1565372853E+00
-5.1470583501E+00   -5.1376142000E+00   -5.1282046440E+00   -5.1188294922E+00
-5.1094885564E+00   -5.1001816495E+00   -5.0909085860E+00   -5.0816691816E+00
-5.0724632534E+00   -5.0632906196E+00   -5.0541511002E+00   -5.0450445160E+00
-5.0359706893E+00   -5.0269294438E+00   -5.0179206042E+00   -5.0089439966E+00
-4.9999994484E+00   -4.9910867881E+00   -4.9822058455E+00   -4.9733564516E+00
-4.9645384386E+00   -4.9557516398E+00   -4.9469958898E+00   -4.9382710244E+00
-4.9295768803E+00   -4.9209132957E+00   -4.9122801097E+00   -4.9036771625E+00
-4.8951042956E+00   -4.8865613515E+00   -4.8780481738E+00   -4.8695646072E+00
-4.8611104974E+00   -4.8526856914E+00   -4.8442900369E+00   -4.8359233831E+00
-4.8275855798E+00   -4.8192764781E+00   -4.8109959301E+00   -4.8027437887E+00
-4.7945199082E+00   -4.7863241435E+00   -4.7781563508E+00   -4.7700163870E+00
-4.7619041103E+00   -4.7538193794E+00   -4.7457620545E+00   -4.7377319964E+00
-4.7297290669E+00   -4.7217531287E+00   -4.7138040456E+00   -4.7058816821E+00
-4.6979859037E+00   -4.6901165769E+00   -4.6822735690E+00   -4.6744567481E+00
</PP_LOCAL>
<PP_NONLOCAL>
<PP_BETA.1
type="real"
size="600"
columns="4"
index="1"
angular_momentum="0"
cutoff_radius_index=" 176"
cutoff_radius="    1.7500000000E+00" >
1.6214157794E-09    7.3095054347E-02    1.4608054707E-01    2.1884615949E-01
2.9128008073E-01    3.6326831617E-01    4.3469406004E-01    5.0543715171E-01
5.7537363348E-01    6.4437542579E-01    7.1231013328E-01    7.7904099296E-01
8.4442697252E-01    9.0832302407E-01    9.7058049573E-01    1.0310476997E+00
1.0895706332E+00    1.1459938442E+00    1.2001614332E+00    1.2519181758E+00
1.3011107527E+00    1.3475890668E+00    1.3912076294E+00    1.4318269914E+00
1.4693151982E+00    1.5035492432E+00    1.5344164956E+00    1.5618160768E+00
1.5856601635E+00    1.6058751909E+00    1.6224029363E+00    1.6352014617E+00
1.6442458960E+00    1.6495290421E+00    1.6510617951E+00    1.6488733605E+00
1.6430112659E+00    1.6335411620E+00    1.6205464131E+00    1.6041274792E+00
1.5844010967E+00    1.5614992682E+00    1.5355680734E+00    1.5067663185E+00
1.4752640428E+00    1.4412409028E+00    1.4048844598E+00    1.3663883944E+00
1.3259506746E+00    1.2837717070E+00    1.2400524963E+00    1.1949928429E+00
1.1487896048E+00    1.1016350506E+00    1.0537153273E+00    1.0052090663E+00
9.5628614794E-01    9.0710664126E-01    8.5781993421E-01    8.0856406532E-01
7.5946526411E-01    7.1063770443E-01    6.6218347077E-01    6.1419273384E-01
5.6674412810E-01    5.1990532006E-01    4.7373375308E-01    4.2827755084E-01
3.8357655893E-01    3.3966350160E-01    2.9656522825E-01    2.5430402297E-01
2.1289894886E-01    1.7236719849E-01    1.3272542155E-01    9.3991000972E-02
5.6183250127E-02    1.9324504588E-02   -1.6558915735E-02   -5.1435896103E-02
-8.5269887273E-02   -1.1801845261E-01   -1.4963301447E-01   -1.8005880863E-01
-2.0923505139E-01   -2.3709532014E-01   -2.6356814385E-01   -2.8857779582E-01
-3.1204527709E-01   -3.3388947499E-01   -3.5402847764E-01   -3.7238102199E-01
-3.8886804992E-01   -4.0341434458E-01   -4.1595021680E-01   -4.2641321033E-01
-4.3474979322E-01   -4.4091700257E-01   -4.4488400997E-01   -4.4663357577E-01
-4.4616336158E-01   -4.4348707248E-01   -4.3863540278E-01   -4.3165676213E-01
-4.2261776236E-01   -4.1160344903E-01   -3.9871726591E-01   -3.8408074499E-01
-3.6783291931E-01   -3.5012946037E-01   -3.3114154712E-01   -3.1105447735E-01
-2.9006603762E-01   -2.6838465193E-01   -2.4622733333E-01   -2.2381746619E-01
-2.0138245022E-01   -1.7915124034E-01   -1.5735181825E-01   -1.3620863311E-01
-1.1594005051E-01   -9.6755848304E-02   -7.8854797982E-02   -6.2422369907E-02
-4.7628598314E-02   -3.4626139402E-02   -2.3548555633E-02   -1.4514331806E-02
-7.5696689442E-03   -2.8811051462E-03   -5.5083173442E-04    1.0823176729E-04
2.7128080756E-05   -3.8995637038E-05    3.8723762814E-06    4.3119394631E-06
5.7891838243E-08    0.0000000000E+00    0.0000000000E+00    0.0000000000E+00
0.0000000000E+00    0.0000000000E+00    0.0000000000E+00    0.0000000000E+00
0.0000000000E+00    0.0000000000E+00    0.0000000000E+00    0.0000000000E+00
0.0000000000E+00    0.0000000000E+00    0.0000000000E+00    0.0000000000E+00
0.0000000000E+00    0.0000000000E+00    0.0000000000E+00    0.0000000000E+00
0.0000000000E+00    0.0000000000E+00    0.0000000000E+00    0.0000000000E+00
0.0000000000E+00    0.0000000000E+00    0.0000000000E+00    0.0000000000E+00
0.0000000000E+00    0.0000000000E+00    0.0000000000E+00    0.0000000000E+00
0.0000000000E+00    0.0000000000E+00    0.0000000000E+00    0.0000000000E+00
0.0000000000E+00    0.0000000000E+00    0.0000000000E+00    0.0000000000E+00
0. 0. 0. 0.
0. 0. 0. 0.
0. 0. 0. 0.
0. 0. 0. 0.
0. 0. 0. 0.
0. 0. 0. 0.
0. 0. 0. 0.
0. 0. 0. 0.
0. 0. 0. 0.
0. 0. 0. 0.
0. 0. 0. 0.
0. 0. 0. 0.
0. 0. 0. 0.
0. 0. 0. 0.
0. 0. 0. 0.
0. 0. 0. 0.
0. 0. 0. 0.
0. 0. 0. 0.
0. 0. 0. 0.
0. 0. 0. 0.
0. 0. 0. 0.
0. 0. 0. 0.
0. 0. 0. 0.
0. 0. 0. 0.
0. 0. 0. 0.
0. 0. 0. 0.
0. 0. 0. 0.
0. 0. 0. 0.
0. 0. 0. 0.
0. 0. 0. 0.
0. 0. 0. 0.
0. 0. 0. 0.
0. 0. 0. 0.
0. 0. 0. 0.
0. 0. 0. 0.
0. 0. 0. 0.
0. 0. 0. 0.
0. 0. 0. 0.
0. 0. 0. 0.
0. 0. 0. 0.
0. 0. 0. 0.
0. 0. 0. 0.
0. 0. 0. 0.
0. 0. 0. 0.
0. 0. 0. 0.
0. 0. 0. 0.
0. 0. 0. 0.
0. 0. 0. 0.
0. 0. 0. 0.
0. 0. 0. 0.
0. 0. 0. 0.
0. 0. 0. 0.
0. 0. 0. 0.
0. 0. 0. 0.
0. 0. 0. 0.
0. 0. 0. 0.
0. 0. 0. 0.
0. 0. 0. 0.
0. 0. 0. 0.
0. 0. 0. 0.
0. 0. 0. 0.
0. 0. 0. 0.
0. 0. 0. 0.
0. 0. 0. 0.