<UPF version="2.0.1">
<PP_INFO>
NOTE!!!!
This file is trimmed with a mesh size of 600 from the original version.
Trimming performed at 2023-03-31 09:10:04.896093 by trim_upf.py version 0.1.0

This pseudopotential file has been produced using the code
ONCVPSP  (Optimized Norm-Conservinng Vanderbilt PSeudopotential)
scalar-relativistic version 3.3.0 08/16/2017 by D. R. Hamann
The code is available through a link at URL www.mat-simresearch.com.
Documentation with the package provides a full discription of the
input data below.
While it is not required under the terms of the GNU GPL, it is
suggested that you cite D. R. Hamann, Phys. Rev. B 88, 085117 (2013)
in any publication using these pseudopotentials.
<PP_INPUTFILE>
# ATOM AND REFERENCE CONFIGURATION
# atsym  z   nc   nv     iexc    psfile
Cs 55.00    9    3       4      upf
#
#   n    l    f        energy (Ha)
1    0    2.00
2    0    2.00
2    1    6.00
3    0    2.00
3    1    6.00
3    2   10.00
4    0    2.00
4    1    6.00
4    2   10.00
5    0    2.00
5    1    6.00
6    0    1.00
#
# PSEUDOPOTENTIAL AND OPTIMIZATION
# lmax
3
#
#   l,   rc,      ep,       ncon, nbas, qcut
0   2.25000  -0.98239    4    7   4.80000
1   1.85000  -0.49679    4    7   6.00000
2   2.00000   0.00000    4    8   6.20000
3   1.90000   0.05000    4    7   8.80000
#
# LOCAL POTENTIAL
# lloc, lpopt,  rc(5),   dvloc0
4    5   1.85000      0.00000
#
# VANDERBILT-KLEINMAN-BYLANDER PROJECTORs
# l, nproj, debl
0    2   0.90572
1    2   5.00000
2    2   5.00000
3    2   2.00000
#
# MODEL CORE CHARGE
# icmod, fcfact, rcfact
3   5.00000   1.40000
#
# LOG DERIVATIVE ANALYSIS
# epsh1, epsh2, depsh
-12.00   12.00    0.02
#
# OUTPUT GRID
# rlmax, drl
6.00    0.01
#
# TEST CONFIGURATIONS
# ncnf
0
# nvcnf
#   n    l    f
</PP_INPUTFILE>
</PP_INFO>
<!--                               -->
<!-- END OF HUMAN READABLE SECTION -->
<!--                               -->
<PP_HEADER
generated="Generated using ONCVPSP code by D. R. Hamann"
author="anonymous"
date="171031"
comment=""
element="Cs"
pseudo_type="NC"
relativistic="scalar"
is_ultrasoft="F"
is_paw="F"
is_coulomb="F"
has_so="F"
has_wfc="F"
has_gipaw="F"
core_correction="T"
functional="PBE"
z_valence="    9.00"
total_psenergy="  -4.08222648648E+01"
rho_cutoff="   2.41300000000E+01"
l_max="3"
l_local="-1"
mesh_size="   600"
number_of_wfc="3"
number_of_proj="8"/>
<PP_MESH>
<PP_R type="real"  size="600" columns="8">
0.0000    0.0100    0.0200    0.0300    0.0400    0.0500    0.0600    0.0700
0.0800    0.0900    0.1000    0.1100    0.1200    0.1300    0.1400    0.1500
0.1600    0.1700    0.1800    0.1900    0.2000    0.2100    0.2200    0.2300
0.2400    0.2500    0.2600    0.2700    0.2800    0.2900    0.3000    0.3100
0.3200    0.3300    0.3400    0.3500    0.3600    0.3700    0.3800    0.3900
0.4000    0.4100    0.4200    0.4300    0.4400    0.4500    0.4600    0.4700
0.4800    0.4900    0.5000    0.5100    0.5200    0.5300    0.5400    0.5500
0.5600    0.5700    0.5800    0.5900    0.6000    0.6100    0.6200    0.6300
0.6400    0.6500    0.6600    0.6700    0.6800    0.6900    0.7000    0.7100
0.7200    0.7300    0.7400    0.7500    0.7600    0.7700    0.7800    0.7900
0.8000    0.8100    0.8200    0.8300    0.8400    0.8500    0.8600    0.8700
0.8800    0.8900    0.9000    0.9100    0.9200    0.9300    0.9400    0.9500
0.9600    0.9700    0.9800    0.9900    1.0000    1.0100    1.0200    1.0300
1.0400    1.0500    1.0600    1.0700    1.0800    1.0900    1.1000    1.1100
1.1200    1.1300    1.1400    1.1500    1.1600    1.1700    1.1800    1.1900
1.2000    1.2100    1.2200    1.2300    1.2400    1.2500    1.2600    1.2700
1.2800    1.2900    1.3000    1.3100    1.3200    1.3300    1.3400    1.3500
1.3600    1.3700    1.3800    1.3900    1.4000    1.4100    1.4200    1.4300
1.4400    1.4500    1.4600    1.4700    1.4800    1.4900    1.5000    1.5100
1.5200    1.5300    1.5400    1.5500    1.5600    1.5700    1.5800    1.5900
1.6000    1.6100    1.6200    1.6300    1.6400    1.6500    1.6600    1.6700
1.6800    1.6900    1.7000    1.7100    1.7200    1.7300    1.7400    1.7500
1.7600    1.7700    1.7800    1.7900    1.8000    1.8100    1.8200    1.8300
1.8400    1.8500    1.8600    1.8700    1.8800    1.8900    1.9000    1.9100
1.9200    1.9300    1.9400    1.9500    1.9600    1.9700    1.9800    1.9900
2.0000    2.0100    2.0200    2.0300    2.0400    2.0500    2.0600    2.0700
2.0800    2.0900    2.1000    2.1100    2.1200    2.1300    2.1400    2.1500
2.1600    2.1700    2.1800    2.1900    2.2000    2.2100    2.2200    2.2300
2.2400    2.2500    2.2600    2.2700    2.2800    2.2900    2.3000    2.3100
2.3200    2.3300    2.3400    2.3500    2.3600    2.3700    2.3800    2.3900
2.4000    2.4100    2.4200    2.4300    2.4400    2.4500    2.4600    2.4700
2.4800    2.4900    2.5000    2.5100    2.5200    2.5300    2.5400    2.5500
2.5600    2.5700    2.5800    2.5900    2.6000    2.6100    2.6200    2.6300
2.6400    2.6500    2.6600    2.6700    2.6800    2.6900    2.7000    2.7100
2.7200    2.7300    2.7400    2.7500    2.7600    2.7700    2.7800    2.7900
2.8000    2.8100    2.8200    2.8300    2.8400    2.8500    2.8600    2.8700
2.8800    2.8900    2.9000    2.9100    2.9200    2.9300    2.9400    2.9500
2.9600    2.9700    2.9800    2.9900    3.0000    3.0100    3.0200    3.0300
3.0400    3.0500    3.0600    3.0700    3.0800    3.0900    3.1000    3.1100
3.1200    3.1300    3.1400    3.1500    3.1600    3.1700    3.1800    3.1900
3.2000    3.2100    3.2200    3.2300    3.2400    3.2500    3.2600    3.2700
3.2800    3.2900    3.3000    3.3100    3.3200    3.3300    3.3400    3.3500
3.3600    3.3700    3.3800    3.3900    3.4000    3.4100    3.4200    3.4300
3.4400    3.4500    3.4600    3.4700    3.4800    3.4900    3.5000    3.5100
3.5200    3.5300    3.5400    3.5500    3.5600    3.5700    3.5800    3.5900
3.6000    3.6100    3.6200    3.6300    3.6400    3.6500    3.6600    3.6700
3.6800    3.6900    3.7000    3.7100    3.7200    3.7300    3.7400    3.7500
3.7600    3.7700    3.7800    3.7900    3.8000    3.8100    3.8200    3.8300
3.8400    3.8500    3.8600    3.8700    3.8800    3.8900    3.9000    3.9100
3.9200    3.9300    3.9400    3.9500    3.9600    3.9700    3.9800    3.9900
4.0000    4.0100    4.0200    4.0300    4.0400    4.0500    4.0600    4.0700
4.0800    4.0900    4.1000    4.1100    4.1200    4.1300    4.1400    4.1500
4.1600    4.1700    4.1800    4.1900    4.2000    4.2100    4.2200    4.2300
4.2400    4.2500    4.2600    4.2700    4.2800    4.2900    4.3000    4.3100
4.3200    4.3300    4.3400    4.3500    4.3600    4.3700    4.3800    4.3900
4.4000    4.4100    4.4200    4.4300    4.4400    4.4500    4.4600    4.4700
4.4800    4.4900    4.5000    4.5100    4.5200    4.5300    4.5400    4.5500
4.5600    4.5700    4.5800    4.5900    4.6000    4.6100    4.6200    4.6300
4.6400    4.6500    4.6600    4.6700    4.6800    4.6900    4.7000    4.7100
4.7200    4.7300    4.7400    4.7500    4.7600    4.7700    4.7800    4.7900
4.8000    4.8100    4.8200    4.8300    4.8400    4.8500    4.8600    4.8700
4.8800    4.8900    4.9000    4.9100    4.9200    4.9300    4.9400    4.9500
4.9600    4.9700    4.9800    4.9900    5.0000    5.0100    5.0200    5.0300
5.0400    5.0500    5.0600    5.0700    5.0800    5.0900    5.1000    5.1100
5.1200    5.1300    5.1400    5.1500    5.1600    5.1700    5.1800    5.1900
5.2000    5.2100    5.2200    5.2300    5.2400    5.2500    5.2600    5.2700
5.2800    5.2900    5.3000    5.3100    5.3200    5.3300    5.3400    5.3500
5.3600    5.3700    5.3800    5.3900    5.4000    5.4100    5.4200    5.4300
5.4400    5.4500    5.4600    5.4700    5.4800    5.4900    5.5000    5.5100
5.5200    5.5300    5.5400    5.5500    5.5600    5.5700    5.5800    5.5900
5.6000    5.6100    5.6200    5.6300    5.6400    5.6500    5.6600    5.6700
5.6800    5.6900    5.7000    5.7100    5.7200    5.7300    5.7400    5.7500
5.7600    5.7700    5.7800    5.7900    5.8000    5.8100    5.8200    5.8300
5.8400    5.8500    5.8600    5.8700    5.8800    5.8900    5.9000    5.9100
5.9200    5.9300    5.9400    5.9500    5.9600    5.9700    5.9800    5.9900
</PP_R>
<PP_RAB type="real"  size="600" columns="8">
0.0100    0.0100    0.0100    0.0100    0.0100    0.0100    0.0100    0.0100
0.0100    0.0100    0.0100    0.0100    0.0100    0.0100    0.0100    0.0100
0.0100    0.0100    0.0100    0.0100    0.0100    0.0100    0.0100    0.0100
0.0100    0.0100    0.0100    0.0100    0.0100    0.0100    0.0100    0.0100
0.0100    0.0100    0.0100    0.0100    0.0100    0.0100    0.0100    0.0100
0.0100    0.0100    0.0100    0.0100    0.0100    0.0100    0.0100    0.0100
0.0100    0.0100    0.0100    0.0100    0.0100    0.0100    0.0100    0.0100
0.0100    0.0100    0.0100    0.0100    0.0100    0.0100    0.0100    0.0100
0.0100    0.0100    0.0100    0.0100    0.0100    0.0100    0.0100    0.0100
0.0100    0.0100    0.0100    0.0100    0.0100    0.0100    0.0100    0.0100
0.0100    0.0100    0.0100    0.0100    0.0100    0.0100    0.0100    0.0100
0.0100    0.0100    0.0100    0.0100    0.0100    0.0100    0.0100    0.0100
0.0100    0.0100    0.0100    0.0100    0.0100    0.0100    0.0100    0.0100
0.0100    0.0100    0.0100    0.0100    0.0100    0.0100    0.0100    0.0100
0.0100    0.0100    0.0100    0.0100    0.0100    0.0100    0.0100    0.0100
0.0100    0.0100    0.0100    0.0100    0.0100    0.0100    0.0100    0.0100
0.0100    0.0100    0.0100    0.0100    0.0100    0.0100    0.0100    0.0100
0.0100    0.0100    0.0100    0.0100    0.0100    0.0100    0.0100    0.0100
0.0100    0.0100    0.0100    0.0100    0.0100    0.0100    0.0100    0.0100
0.0100    0.0100    0.0100    0.0100    0.0100    0.0100    0.0100    0.0100
0.0100    0.0100    0.0100    0.0100    0.0100    0.0100    0.0100    0.0100
0.0100    0.0100    0.0100    0.0100    0.0100    0.0100    0.0100    0.0100
0.0100    0.0100    0.0100    0.0100    0.0100    0.0100    0.0100    0.0100
0.0100    0.0100    0.0100    0.0100    0.0100    0.0100    0.0100    0.0100
0.0100    0.0100    0.0100    0.0100    0.0100    0.0100    0.0100    0.0100
0.0100    0.0100    0.0100    0.0100    0.0100    0.0100    0.0100    0.0100
0.0100    0.0100    0.0100    0.0100    0.0100    0.0100    0.0100    0.0100
0.0100    0.0100    0.0100    0.0100    0.0100    0.0100    0.0100    0.0100
0.0100    0.0100    0.0100    0.0100    0.0100    0.0100    0.0100    0.0100
0.0100    0.0100    0.0100    0.0100    0.0100    0.0100    0.0100    0.0100
0.0100    0.0100    0.0100    0.0100    0.0100    0.0100    0.0100    0.0100
0.0100    0.0100    0.0100    0.0100    0.0100    0.0100    0.0100    0.0100
0.0100    0.0100    0.0100    0.0100    0.0100    0.0100    0.0100    0.0100
0.0100    0.0100    0.0100    0.0100    0.0100    0.0100    0.0100    0.0100
0.0100    0.0100    0.0100    0.0100    0.0100    0.0100    0.0100    0.0100
0.0100    0.0100    0.0100    0.0100    0.0100    0.0100    0.0100    0.0100
0.0100    0.0100    0.0100    0.0100    0.0100    0.0100    0.0100    0.0100
0.0100    0.0100    0.0100    0.0100    0.0100    0.0100    0.0100    0.0100
0.0100    0.0100    0.0100    0.0100    0.0100    0.0100    0.0100    0.0100
0.0100    0.0100    0.0100    0.0100    0.0100    0.0100    0.0100    0.0100
0.0100    0.0100    0.0100    0.0100    0.0100    0.0100    0.0100    0.0100
0.0100    0.0100    0.0100    0.0100    0.0100    0.0100    0.0100    0.0100
0.0100    0.0100    0.0100    0.0100    0.0100    0.0100    0.0100    0.0100
0.0100    0.0100    0.0100    0.0100    0.0100    0.0100    0.0100    0.0100
0.0100    0.0100    0.0100    0.0100    0.0100    0.0100    0.0100    0.0100
0.0100    0.0100    0.0100    0.0100    0.0100    0.0100    0.0100    0.0100
0.0100    0.0100    0.0100    0.0100    0.0100    0.0100    0.0100    0.0100
0.0100    0.0100    0.0100    0.0100    0.0100    0.0100    0.0100    0.0100
0.0100    0.0100    0.0100    0.0100    0.0100    0.0100    0.0100    0.0100
0.0100    0.0100    0.0100    0.0100    0.0100    0.0100    0.0100    0.0100
0.0100    0.0100    0.0100    0.0100    0.0100    0.0100    0.0100    0.0100
0.0100    0.0100    0.0100    0.0100    0.0100    0.0100    0.0100    0.0100
0.0100    0.0100    0.0100    0.0100    0.0100    0.0100    0.0100    0.0100
0.0100    0.0100    0.0100    0.0100    0.0100    0.0100    0.0100    0.0100
0.0100    0.0100    0.0100    0.0100    0.0100    0.0100    0.0100    0.0100
0.0100    0.0100    0.0100    0.0100    0.0100    0.0100    0.0100    0.0100
0.0100    0.0100    0.0100    0.0100    0.0100    0.0100    0.0100    0.0100
0.0100    0.0100    0.0100    0.0100    0.0100    0.0100    0.0100    0.0100
0.0100    0.0100    0.0100    0.0100    0.0100    0.0100    0.0100    0.0100
0.0100    0.0100    0.0100    0.0100    0.0100    0.0100    0.0100    0.0100
0.0100    0.0100    0.0100    0.0100    0.0100    0.0100    0.0100    0.0100
0.0100    0.0100    0.0100    0.0100    0.0100    0.0100    0.0100    0.0100
0.0100    0.0100    0.0100    0.0100    0.0100    0.0100    0.0100    0.0100
0.0100    0.0100    0.0100    0.0100    0.0100    0.0100    0.0100    0.0100
0.0100    0.0100    0.0100    0.0100    0.0100    0.0100    0.0100    0.0100
0.0100    0.0100    0.0100    0.0100    0.0100    0.0100    0.0100    0.0100
0.0100    0.0100    0.0100    0.0100    0.0100    0.0100    0.0100    0.0100
0.0100    0.0100    0.0100    0.0100    0.0100    0.0100    0.0100    0.0100
0.0100    0.0100    0.0100    0.0100    0.0100    0.0100    0.0100    0.0100
0.0100    0.0100    0.0100    0.0100    0.0100    0.0100    0.0100    0.0100
0.0100    0.0100    0.0100    0.0100    0.0100    0.0100    0.0100    0.0100
0.0100    0.0100    0.0100    0.0100    0.0100    0.0100    0.0100    0.0100
0.0100    0.0100    0.0100    0.0100    0.0100    0.0100    0.0100    0.0100
0.0100    0.0100    0.0100    0.0100    0.0100    0.0100    0.0100    0.0100
0.0100    0.0100    0.0100    0.0100    0.0100    0.0100    0.0100    0.0100
</PP_RAB>
</PP_MESH>
<PP_LOCAL type="real"  size="600" columns="4">
-2.0771040482E+01   -2.0770472088E+01   -2.0768767028E+01   -2.0765925682E+01
-2.0761948684E+01   -2.0756836921E+01   -2.0750591531E+01   -2.0743213903E+01
-2.0734705680E+01   -2.0725068753E+01   -2.0714305261E+01   -2.0702417592E+01
-2.0689408381E+01   -2.0675280506E+01   -2.0660037088E+01   -2.0643681490E+01
-2.0626217312E+01   -2.0607648390E+01   -2.0587978795E+01   -2.0567212826E+01
-2.0545355012E+01   -2.0522410104E+01   -2.0498383073E+01   -2.0473279106E+01
-2.0447103605E+01   -2.0419862175E+01   -2.0391560628E+01   -2.0362204972E+01
-2.0331801409E+01   -2.0300356326E+01   -2.0267876297E+01   -2.0234368067E+01
-2.0199838555E+01   -2.0164294843E+01   -2.0127744172E+01   -2.0090193935E+01
-2.0051651670E+01   -2.0012125055E+01   -1.9971621901E+01   -1.9930150146E+01
-1.9887717850E+01   -1.9844333186E+01   -1.9800004437E+01   -1.9754739988E+01
-1.9708548325E+01   -1.9661438022E+01   -1.9613417745E+01   -1.9564496242E+01
-1.9514682341E+01   -1.9463984945E+01   -1.9412413032E+01   -1.9359975649E+01
-1.9306681911E+01   -1.9252541002E+01   -1.9197562169E+01   -1.9141754727E+01
-1.9085128056E+01   -1.9027691603E+01   -1.8969454885E+01   -1.8910427487E+01
-1.8850619069E+01   -1.8790039366E+01   -1.8728698195E+01   -1.8666605456E+01
-1.8603771140E+01   -1.8540205331E+01   -1.8475918214E+01   -1.8410920080E+01
-1.8345221333E+01   -1.8278832494E+01   -1.8211764212E+01   -1.8144027266E+01
-1.8075632574E+01   -1.8006591200E+01   -1.7936914359E+01   -1.7866613424E+01
-1.7795699932E+01   -1.7724185590E+01   -1.7652082281E+01   -1.7579402064E+01
-1.7506157185E+01   -1.7432360075E+01   -1.7358023359E+01   -1.7283159851E+01
-1.7207782561E+01   -1.7131904694E+01   -1.7055539653E+01   -1.6978701034E+01
-1.6901402629E+01   -1.6823658420E+01   -1.6745482582E+01   -1.6666889476E+01
-1.6587893648E+01   -1.6508509820E+01   -1.6428752893E+01   -1.6348637934E+01
-1.6268180178E+01   -1.6187395016E+01   -1.6106297993E+01   -1.6024904800E+01
-1.5943231269E+01   -1.5861293366E+01   -1.5779107184E+01   -1.5696688937E+01
-1.5614054957E+01   -1.5531221681E+01   -1.5448205651E+01   -1.5365023507E+01
-1.5281691980E+01   -1.5198227885E+01   -1.5114648122E+01   -1.5030969663E+01
-1.4947209555E+01   -1.4863384908E+01   -1.4779512897E+01   -1.4695610753E+01
-1.4611695760E+01   -1.4527785252E+01   -1.4443896607E+01   -1.4360047244E+01
-1.4276254616E+01   -1.4192536206E+01   -1.4108909525E+01   -1.4025392100E+01
-1.3942001472E+01   -1.3858755192E+01   -1.3775670805E+01   -1.3692765851E+01
-1.3610057851E+01   -1.3527564297E+01   -1.3445302646E+01   -1.3363290304E+01
-1.3281544616E+01   -1.3200082852E+01   -1.3118922190E+01   -1.3038079708E+01
-1.2957572358E+01   -1.2877416958E+01   -1.2797630166E+01   -1.2718228466E+01
-1.2639228149E+01   -1.2560645286E+01   -1.2482495714E+01   -1.2404795012E+01
-1.2327558476E+01   -1.2250801102E+01   -1.2174537558E+01   -1.2098782164E+01
-1.2023548869E+01   -1.1948851228E+01   -1.1874702378E+01   -1.1801115018E+01
-1.1728101385E+01   -1.1655673235E+01   -1.1583841819E+01   -1.1512617863E+01
-1.1442011552E+01   -1.1372032507E+01   -1.1302689768E+01   -1.1233991776E+01
-1.1165946359E+01   -1.1098560713E+01   -1.1031841390E+01   -1.0965794282E+01
-1.0900424607E+01   -1.0835736899E+01   -1.0771734997E+01   -1.0708422029E+01
-1.0645800410E+01   -1.0583871825E+01   -1.0522637224E+01   -1.0462096814E+01
-1.0402250051E+01   -1.0343095632E+01   -1.0284631489E+01   -1.0226854784E+01
-1.0169761901E+01   -1.0113348443E+01   -1.0057609239E+01   -1.0002538262E+01
-9.9481287485E+00   -9.8943731744E+00   -9.8412631036E+00   -9.7887896763E+00
-9.7369427445E+00   -9.6857097075E+00   -9.6350756949E+00   -9.5850237265E+00
-9.5355351991E+00   -9.4865928443E+00   -9.4381839949E+00   -9.3902976624E+00
-9.3429236598E+00   -9.2960524211E+00   -9.2496731983E+00   -9.2037743521E+00
-9.1583448170E+00   -9.1133749757E+00   -9.0688555319E+00   -9.0247769017E+00
-8.9811297738E+00   -8.9379051437E+00   -8.8950942982E+00   -8.8526887537E+00
-8.8106802484E+00   -8.7690607567E+00   -8.7278224836E+00   -8.6869578609E+00
-8.6464595433E+00   -8.6063204064E+00   -8.5665335432E+00   -8.5270922615E+00
-8.4879900815E+00   -8.4492207328E+00   -8.4107781522E+00   -8.3726564808E+00
-8.3348500600E+00   -8.2973534283E+00   -8.2601613223E+00   -8.2232686902E+00
-8.1866706526E+00   -8.1503625063E+00   -8.1143397208E+00   -8.0785980081E+00
-8.0431330965E+00   -8.0079410946E+00   -7.9730185557E+00   -7.9383625781E+00
-7.9039705822E+00   -7.8698410341E+00   -7.8359727673E+00   -7.8023647366E+00
-7.7690137442E+00   -7.7359164049E+00   -7.7030691719E+00   -7.6704696849E+00
-7.6381155232E+00   -7.6060043503E+00   -7.5741337191E+00   -7.5425013311E+00
-7.5111049819E+00   -7.4799425587E+00   -7.4490120216E+00   -7.4183113993E+00
-7.3878387880E+00   -7.3575923484E+00   -7.3275703031E+00   -7.2977709317E+00
-7.2681925675E+00   -7.2388335933E+00   -7.2096924384E+00   -7.1807675741E+00
-7.1520575107E+00   -7.1235607935E+00   -7.0952759994E+00   -7.0672017332E+00
-7.0393366240E+00   -7.0116793219E+00   -6.9842284943E+00   -6.9569828229E+00
-6.9299410001E+00   -6.9031017260E+00   -6.8764637051E+00   -6.8500256438E+00
-6.8237862468E+00   -6.7977442149E+00   -6.7718982424E+00   -6.7462470142E+00
-6.7207892038E+00   -6.6955234715E+00   -6.6704484615E+00   -6.6455628011E+00
-6.6208650984E+00   -6.5963539415E+00   -6.5720278965E+00   -6.5478855074E+00
-6.5239252947E+00   -6.5001457550E+00   -6.4765453606E+00   -6.4531225596E+00
-6.4298757755E+00   -6.4068034080E+00   -6.3839038331E+00   -6.3611754040E+00
-6.3386164519E+00   -6.3162252871E+00   -6.2940002002E+00   -6.2719394637E+00
-6.2500413333E+00   -6.2283040501E+00   -6.2067258420E+00   -6.1853049259E+00
-6.1640395098E+00   -6.1429277950E+00   -6.1219679784E+00   -6.1011582547E+00
-6.0804968188E+00   -6.0599818683E+00   -6.0396116057E+00   -6.0193842410E+00
-5.9992979938E+00   -5.9793510959E+00   -5.9595417934E+00   -5.9398683487E+00
-5.9203290432E+00   -5.9009221785E+00   -5.8816460791E+00   -5.8624990934E+00
-5.8434795958E+00   -5.8245859885E+00   -5.8058167020E+00   -5.7871701971E+00
-5.7686449656E+00   -5.7502395312E+00   -5.7319524506E+00   -5.7137823133E+00
-5.6957277431E+00   -5.6777873975E+00   -5.6599599682E+00   -5.6422441812E+00
-5.6246387961E+00   -5.6071426067E+00   -5.5897544395E+00   -5.5724731539E+00
-5.5552976416E+00   -5.5382268252E+00   -5.5212596578E+00   -5.5043951221E+00
-5.4876322289E+00   -5.4709700168E+00   -5.4544075501E+00   -5.4379439184E+00
-5.4215782350E+00   -5.4053096354E+00   -5.3891372767E+00   -5.3730603356E+00
-5.3570780075E+00   -5.3411895049E+00   -5.3253940566E+00   -5.3096909059E+00
-5.2940793097E+00   -5.2785585370E+00   -5.2631278684E+00   -5.2477865939E+00
-5.2325340128E+00   -5.2173694322E+00   -5.2022921662E+00   -5.1873015349E+00
-5.1723968637E+00   -5.1575774822E+00   -5.1428427242E+00   -5.1281919262E+00
-5.1136244273E+00   -5.0991395689E+00   -5.0847366938E+00   -5.0704151462E+00
-5.0561742713E+00   -5.0420134151E+00   -5.0279319243E+00   -5.0139291462E+00
-5.0000044287E+00   -4.9861571203E+00   -4.9723865703E+00   -4.9586921289E+00
-4.9450731476E+00   -4.9315289791E+00   -4.9180589781E+00   -4.9046625012E+00
-4.8913389077E+00   -4.8780875597E+00   -4.8649078229E+00   -4.8517990667E+00
-4.8387606650E+00   -4.8257919968E+00   -4.8128924464E+00   -4.8000614040E+00
-4.7872982666E+00   -4.7746024383E+00   -4.7619733305E+00   -4.7494103631E+00
-4.7369129645E+00   -4.7244805720E+00   -4.7121126326E+00   -4.6998086035E+00
-4.6875679517E+00   -4.6753901552E+00   -4.6632747030E+00   -4.6512210950E+00
-4.6392288428E+00   -4.6272974694E+00   -4.6154265094E+00   -4.6036155091E+00
-4.5918640266E+00   -4.5801716314E+00   -4.5685379044E+00   -4.5569624376E+00
-4.5454448345E+00   -4.5339847088E+00   -4.5225816845E+00   -4.5112353956E+00
-4.4999454855E+00   -4.4887116063E+00   -4.4775334186E+00   -4.4664105903E+00
-4.4553427965E+00   -4.4443297186E+00   -4.4333710435E+00   -4.4224664629E+00
-4.4116156726E+00   -4.4008183713E+00   -4.3900742606E+00   -4.3793830434E+00
-4.3687444235E+00   -4.3581581048E+00   -4.3476237904E+00   -4.3371411819E+00
-4.3267099788E+00   -4.3163298776E+00   -4.3060005714E+00   -4.2957217493E+00
-4.2854930954E+00   -4.2753142889E+00   -4.2651850036E+00   -4.2551049074E+00
-4.2450736624E+00   -4.2350909238E+00   -4.2251563407E+00   -4.2152695558E+00
-4.2054302058E+00   -4.1956379212E+00   -4.1858923260E+00   -4.1761930388E+00
-4.1665396731E+00   -4.1569318376E+00   -4.1473691373E+00   -4.1378511724E+00
-4.1283775410E+00   -4.1189478386E+00   -4.1095616595E+00   -4.1002185974E+00
-4.0909182459E+00   -4.0816601997E+00   -4.0724440557E+00   -4.0632694134E+00
-4.0541358758E+00   -4.0450430511E+00   -4.0359905526E+00   -4.0269780000E+00
-4.0180050198E+00   -4.0090712465E+00   -4.0001763226E+00   -3.9913199007E+00
-3.9825016428E+00   -3.9737212206E+00   -3.9649783169E+00   -3.9562726245E+00
-3.9476038487E+00   -3.9389717059E+00   -3.9303759241E+00   -3.9218162423E+00
-3.9132924113E+00   -3.9048041930E+00   -3.8963513613E+00   -3.8879337006E+00
-3.8795510055E+00   -3.8712030813E+00   -3.8628897422E+00   -3.8546108124E+00
-3.8463661244E+00   -3.8381555187E+00   -3.8299788434E+00   -3.8218359531E+00
-3.8137267088E+00   -3.8056509765E+00   -3.7976086269E+00   -3.7895995351E+00
-3.7816235793E+00   -3.7736806409E+00   -3.7657706025E+00   -3.7578933482E+00
-3.7500487630E+00   -3.7422367323E+00   -3.7344571408E+00   -3.7267098731E+00
-3.7189948112E+00   -3.7113118358E+00   -3.7036608255E+00   -3.6960416561E+00
-3.6884542008E+00   -3.6808983299E+00   -3.6733739093E+00   -3.6658808018E+00
-3.6584188666E+00   -3.6509879588E+00   -3.6435879297E+00   -3.6362186267E+00
-3.6288798926E+00   -3.6215715669E+00   -3.6142934847E+00   -3.6070454774E+00
-3.5998273729E+00   -3.5926389951E+00   -3.5854801649E+00   -3.5783506995E+00
-3.5712504133E+00   -3.5641791178E+00   -3.5571366219E+00   -3.5501227319E+00
-3.5431372525E+00   -3.5361799860E+00   -3.5292507333E+00   -3.5223492940E+00
-3.5154754666E+00   -3.5086290485E+00   -3.5018098372E+00   -3.4950176294E+00
-3.4882522223E+00   -3.4815134129E+00   -3.4748009990E+00   -3.4681147790E+00
-3.4614545527E+00   -3.4548201210E+00   -3.4482112862E+00   -3.4416278526E+00
-3.4350696261E+00   -3.4285364133E+00   -3.4220280267E+00   -3.4155442797E+00
-3.4090849884E+00   -3.4026499713E+00   -3.3962390499E+00   -3.3898520703E+00
-3.3834888432E+00   -3.3771491843E+00   -3.3708329233E+00   -3.3645398953E+00
-3.3582699418E+00   -3.3520228683E+00   -3.3457984988E+00   -3.3395968018E+00
-3.3334176666E+00   -3.3272609806E+00   -3.3211266255E+00   -3.3150144733E+00
-3.3089244684E+00   -3.3028563631E+00   -3.2968099571E+00   -3.2907850454E+00
-3.2847814104E+00   -3.2787988255E+00   -3.2728372676E+00   -3.2668965930E+00
-3.2609761464E+00   -3.2550756324E+00   -3.2491948048E+00   -3.2433334848E+00
-3.2374915774E+00   -3.2316677488E+00   -3.2258633106E+00   -3.2200791307E+00
-3.2143157572E+00   -3.2085737374E+00   -3.2028535745E+00   -3.1971559497E+00
-3.1914828572E+00   -3.1858320372E+00   -3.1802030858E+00   -3.1745954980E+00
-3.1690087020E+00   -3.1634420971E+00   -3.1578944924E+00   -3.1523649758E+00
-3.1468544124E+00   -3.1413626805E+00   -3.1358897143E+00   -3.1304354927E+00
-3.1250000256E+00   -3.1195836696E+00   -3.1141863735E+00   -3.1088077555E+00
-3.1034477255E+00   -3.0981061871E+00   -3.0927830384E+00   -3.0874781736E+00
-3.0821914262E+00   -3.0769227167E+00   -3.0716719904E+00   -3.0664391554E+00
-3.0612241203E+00   -3.0560267941E+00   -3.0508470866E+00   -3.0456849067E+00
-3.0405401658E+00   -3.0354127763E+00   -3.0303026506E+00   -3.0252097017E+00
-3.0201338431E+00   -3.0150749890E+00   -3.0100330544E+00   -3.0050079545E+00
</PP_LOCAL>
<PP_NONLOCAL>
<PP_BETA.1
type="real"
size="600"
columns="4"
index="1"
angular_momentum="0"
cutoff_radius_index=" 232"
cutoff_radius="    2.3100000000E+00" >
3.5317027081E-12    2.2819869625E-02    4.5646253174E-02    6.8485589585E-02
9.1344168112E-02    1.1422805420E-01    1.3714301618E-01    1.6009445315E-01
1.8308732421E-01    2.0612607939E-01    2.2921459254E-01    2.5235609639E-01
2.7555312010E-01    2.9880742948E-01    3.2211997018E-01    3.4549081402E-01
3.6891910874E-01    3.9240303130E-01    4.1593974500E-01    4.3952536056E-01
4.6315490133E-01    4.8682227287E-01    5.1052023684E-01    5.3424038961E-01
5.5797314548E-01    5.8170772468E-01    6.0543214631E-01    6.2913322612E-01
6.5279657941E-01    6.7640662879E-01    6.9994661719E-01    7.2339862570E-01
7.4674359658E-01    7.6996136123E-01    7.9303067308E-01    8.1592924535E-01
8.3863379365E-01    8.6112008317E-01    8.8336298054E-01    9.0533651007E-01
9.2701391423E-01    9.4836771829E-01    9.6936979887E-01    9.8999145623E-01
1.0102034900E+00    1.0299762783E+00    1.0492798598E+00    1.0680840186E+00
1.0863583718E+00    1.1040724589E+00    1.1211958336E+00    1.1376981573E+00
1.1535492931E+00    1.1687194022E+00    1.1831790398E+00    1.1968992525E+00
1.2098516744E+00    1.2220086245E+00    1.2333432024E+00    1.2438293832E+00
1.2534421119E+00    1.2621573953E+00    1.2699523922E+00    1.2768055020E+00
1.2826964495E+00    1.2876063681E+00    1.2915178786E+00    1.2944151657E+00
1.2962840493E+00    1.2971120532E+00    1.2968884680E+00    1.2956044107E+00
1.2932528782E+00    1.2898287967E+00    1.2853290653E+00    1.2797525941E+00
1.2731003366E+00    1.2653753167E+00    1.2565826487E+00    1.2467295525E+00
1.2358253614E+00    1.2238815241E+00    1.2109116005E+00    1.1969312509E+00
1.1819582184E+00    1.1660123058E+00    1.1491153450E+00    1.1312911609E+00
1.1125655286E+00    1.0929661246E+00    1.0725224720E+00    1.0512658793E+00
1.0292293741E+00    1.0064476310E+00    9.8295689362E-01    9.5879489223E-01
9.3400075601E-01    9.0861492077E-01    8.8267903229E-01    8.5623584562E-01
8.2932912050E-01    8.0200351353E-01    7.7430446707E-01    7.4627809545E-01
7.1797106886E-01    6.8943049514E-01    6.6070380000E-01    6.3183860601E-01
6.0288261068E-01    5.7388346421E-01    5.4488864713E-01    5.1594534833E-01
4.8710034383E-01    4.5839987683E-01    4.2988953919E-01    4.0161415499E-01
3.7361766642E-01    3.4594302240E-01    3.1863207028E-01    2.9172545111E-01
2.6526249862E-01    2.3928114244E-01    2.1381781576E-01    1.8890736777E-01
1.6458298121E-01    1.4087609525E-01    1.1781633392E-01    9.5431440432E-02
7.3747217494E-02    5.2787473876E-02    3.2573977339E-02    1.3126414117E-02
-5.5376449611E-03   -2.3402771604E-02   -4.0455700362E-02   -5.6685342090E-02
-7.2082790508E-02   -8.6641321889E-02   -1.0035638790E-01   -1.1322560164E-01
-1.2524871694E-01   -1.3642760107E-01   -1.4676620094E-01   -1.5627050290E-01
-1.6494848641E-01   -1.7281007172E-01   -1.7986706168E-01   -1.8613307808E-01
-1.9162349259E-01   -1.9635535272E-01   -2.0034730298E-01   -2.0361950147E-01
-2.0619353245E-01   -2.0809231490E-01   -2.0934000762E-01   -2.0996191110E-01
-2.0998436657E-01   -2.0943465247E-01   -2.0834087884E-01   -2.0673187984E-01
-2.0463710487E-01   -2.0208650856E-01   -1.9911044004E-01   -1.9573953184E-01
-1.9200458865E-01   -1.8793647649E-01   -1.8356601242E-01   -1.7892385515E-01
-1.7404039699E-01   -1.6894565723E-01   -1.6366917742E-01   -1.5823991864E-01
-1.5268616120E-01   -1.4703540678E-01   -1.4131428348E-01   -1.3554845370E-01
-1.2976252532E-01   -1.2397996602E-01   -1.1822302120E-01   -1.1251263531E-01
-1.0686837571E-01   -1.0130836702E-01   -9.5849205898E-02   -9.0505939221E-02
-8.5291977181E-02   -8.0218959557E-02   -7.5296804753E-02   -7.0533851692E-02
-6.5936975325E-02   -6.1511754643E-02   -5.7262699868E-02   -5.3193200254E-02
-4.9305535832E-02   -4.5600962886E-02   -4.2079755474E-02   -3.8741258625E-02
-3.5583947675E-02   -3.2605487254E-02   -2.9802793415E-02   -2.7172097649E-02
-2.4709012723E-02   -2.2408599845E-02   -2.0265436941E-02   -1.8273687707E-02
-1.6427171103E-02   -1.4719430966E-02   -1.3143805498E-02   -1.1693496170E-02