<UPF version="2.0.1">
<PP_INFO>
NOTE!!!!
This file is trimmed with a mesh size of 600 from the original version.
Trimming performed at 2023-03-31 09:10:04.968360 by trim_upf.py version 0.1.0

This pseudopotential file has been produced using the code
ONCVPSP  (Optimized Norm-Conservinng Vanderbilt PSeudopotential)
scalar-relativistic version 3.3.0 08/16/2017 by D. R. Hamann
The code is available through a link at URL www.mat-simresearch.com.
Documentation with the package provides a full discription of the
input data below.
While it is not required under the terms of the GNU GPL, it is
suggested that you cite D. R. Hamann, Phys. Rev. B 88, 085117 (2013)
in any publication using these pseudopotentials.
<PP_INPUTFILE>
# ATOM AND REFERENCE CONFIGURATION
# atsym  z   nc   nv     iexc    psfile
Cu 29.00    3    4       4      upf
#
#   n    l    f        energy (Ha)
1    0    2.00
2    0    2.00
2    1    6.00
3    0    2.00
3    1    6.00
3    2   10.00
4    0    1.00
#
# PSEUDOPOTENTIAL AND OPTIMIZATION
# lmax
2
#
#   l,   rc,      ep,       ncon, nbas, qcut
0   1.25000  -4.21529    4    8   9.00000
1   1.45000  -2.65124    4    8   9.50000
2   1.75000  -0.18517    4    7   9.50000
#
# LOCAL POTENTIAL
# lloc, lpopt,  rc(5),   dvloc0
4    5   1.20000      0.00000
#
# VANDERBILT-KLEINMAN-BYLANDER PROJECTORs
# l, nproj, debl
0    2   4.04588
1    2   2.62563
2    2   2.00000
#
# MODEL CORE CHARGE
# icmod, fcfact, rcfact
3   3.50000   1.65000
#
# LOG DERIVATIVE ANALYSIS
# epsh1, epsh2, depsh
-12.00   12.00    0.02
#
# OUTPUT GRID
# rlmax, drl
6.00    0.01
#
# TEST CONFIGURATIONS
# ncnf
0
# nvcnf
#   n    l    f
</PP_INPUTFILE>
</PP_INFO>
<!--                               -->
<!-- END OF HUMAN READABLE SECTION -->
<!--                               -->
<PP_HEADER
generated="Generated using ONCVPSP code by D. R. Hamann"
author="anonymous"
date="171031"
comment=""
element="Cu"
pseudo_type="NC"
relativistic="scalar"
is_ultrasoft="F"
is_paw="F"
is_coulomb="F"
has_so="F"
has_wfc="F"
has_gipaw="F"
core_correction="T"
functional="PBE"
z_valence="   19.00"
total_psenergy="  -3.70755951738E+02"
rho_cutoff="   1.49100000000E+01"
l_max="2"
l_local="-1"
mesh_size="   600"
number_of_wfc="4"
number_of_proj="6"/>
<PP_MESH>
<PP_R type="real"  size="600" columns="8">
0.0000    0.0100    0.0200    0.0300    0.0400    0.0500    0.0600    0.0700
0.0800    0.0900    0.1000    0.1100    0.1200    0.1300    0.1400    0.1500
0.1600    0.1700    0.1800    0.1900    0.2000    0.2100    0.2200    0.2300
0.2400    0.2500    0.2600    0.2700    0.2800    0.2900    0.3000    0.3100
0.3200    0.3300    0.3400    0.3500    0.3600    0.3700    0.3800    0.3900
0.4000    0.4100    0.4200    0.4300    0.4400    0.4500    0.4600    0.4700
0.4800    0.4900    0.5000    0.5100    0.5200    0.5300    0.5400    0.5500
0.5600    0.5700    0.5800    0.5900    0.6000    0.6100    0.6200    0.6300
0.6400    0.6500    0.6600    0.6700    0.6800    0.6900    0.7000    0.7100
0.7200    0.7300    0.7400    0.7500    0.7600    0.7700    0.7800    0.7900
0.8000    0.8100    0.8200    0.8300    0.8400    0.8500    0.8600    0.8700
0.8800    0.8900    0.9000    0.9100    0.9200    0.9300    0.9400    0.9500
0.9600    0.9700    0.9800    0.9900    1.0000    1.0100    1.0200    1.0300
1.0400    1.0500    1.0600    1.0700    1.0800    1.0900    1.1000    1.1100
1.1200    1.1300    1.1400    1.1500    1.1600    1.1700    1.1800    1.1900
1.2000    1.2100    1.2200    1.2300    1.2400    1.2500    1.2600    1.2700
1.2800    1.2900    1.3000    1.3100    1.3200    1.3300    1.3400    1.3500
1.3600    1.3700    1.3800    1.3900    1.4000    1.4100    1.4200    1.4300
1.4400    1.4500    1.4600    1.4700    1.4800    1.4900    1.5000    1.5100
1.5200    1.5300    1.5400    1.5500    1.5600    1.5700    1.5800    1.5900
1.6000    1.6100    1.6200    1.6300    1.6400    1.6500    1.6600    1.6700
1.6800    1.6900    1.7000    1.7100    1.7200    1.7300    1.7400    1.7500
1.7600    1.7700    1.7800    1.7900    1.8000    1.8100    1.8200    1.8300
1.8400    1.8500    1.8600    1.8700    1.8800    1.8900    1.9000    1.9100
1.9200    1.9300    1.9400    1.9500    1.9600    1.9700    1.9800    1.9900
2.0000    2.0100    2.0200    2.0300    2.0400    2.0500    2.0600    2.0700
2.0800    2.0900    2.1000    2.1100    2.1200    2.1300    2.1400    2.1500
2.1600    2.1700    2.1800    2.1900    2.2000    2.2100    2.2200    2.2300
2.2400    2.2500    2.2600    2.2700    2.2800    2.2900    2.3000    2.3100
2.3200    2.3300    2.3400    2.3500    2.3600    2.3700    2.3800    2.3900
2.4000    2.4100    2.4200    2.4300    2.4400    2.4500    2.4600    2.4700
2.4800    2.4900    2.5000    2.5100    2.5200    2.5300    2.5400    2.5500
2.5600    2.5700    2.5800    2.5900    2.6000    2.6100    2.6200    2.6300
2.6400    2.6500    2.6600    2.6700    2.6800    2.6900    2.7000    2.7100
2.7200    2.7300    2.7400    2.7500    2.7600    2.7700    2.7800    2.7900
2.8000    2.8100    2.8200    2.8300    2.8400    2.8500    2.8600    2.8700
2.8800    2.8900    2.9000    2.9100    2.9200    2.9300    2.9400    2.9500
2.9600    2.9700    2.9800    2.9900    3.0000    3.0100    3.0200    3.0300
3.0400    3.0500    3.0600    3.0700    3.0800    3.0900    3.1000    3.1100
3.1200    3.1300    3.1400    3.1500    3.1600    3.1700    3.1800    3.1900
3.2000    3.2100    3.2200    3.2300    3.2400    3.2500    3.2600    3.2700
3.2800    3.2900    3.3000    3.3100    3.3200    3.3300    3.3400    3.3500
3.3600    3.3700    3.3800    3.3900    3.4000    3.4100    3.4200    3.4300
3.4400    3.4500    3.4600    3.4700    3.4800    3.4900    3.5000    3.5100
3.5200    3.5300    3.5400    3.5500    3.5600    3.5700    3.5800    3.5900
3.6000    3.6100    3.6200    3.6300    3.6400    3.6500    3.6600    3.6700
3.6800    3.6900    3.7000    3.7100    3.7200    3.7300    3.7400    3.7500
3.7600    3.7700    3.7800    3.7900    3.8000    3.8100    3.8200    3.8300
3.8400    3.8500    3.8600    3.8700    3.8800    3.8900    3.9000    3.9100
3.9200    3.9300    3.9400    3.9500    3.9600    3.9700    3.9800    3.9900
4.0000    4.0100    4.0200    4.0300    4.0400    4.0500    4.0600    4.0700
4.0800    4.0900    4.1000    4.1100    4.1200    4.1300    4.1400    4.1500
4.1600    4.1700    4.1800    4.1900    4.2000    4.2100    4.2200    4.2300
4.2400    4.2500    4.2600    4.2700    4.2800    4.2900    4.3000    4.3100
4.3200    4.3300    4.3400    4.3500    4.3600    4.3700    4.3800    4.3900
4.4000    4.4100    4.4200    4.4300    4.4400    4.4500    4.4600    4.4700
4.4800    4.4900    4.5000    4.5100    4.5200    4.5300    4.5400    4.5500
4.5600    4.5700    4.5800    4.5900    4.6000    4.6100    4.6200    4.6300
4.6400    4.6500    4.6600    4.6700    4.6800    4.6900    4.7000    4.7100
4.7200    4.7300    4.7400    4.7500    4.7600    4.7700    4.7800    4.7900
4.8000    4.8100    4.8200    4.8300    4.8400    4.8500    4.8600    4.8700
4.8800    4.8900    4.9000    4.9100    4.9200    4.9300    4.9400    4.9500
4.9600    4.9700    4.9800    4.9900    5.0000    5.0100    5.0200    5.0300
5.0400    5.0500    5.0600    5.0700    5.0800    5.0900    5.1000    5.1100
5.1200    5.1300    5.1400    5.1500    5.1600    5.1700    5.1800    5.1900
5.2000    5.2100    5.2200    5.2300    5.2400    5.2500    5.2600    5.2700
5.2800    5.2900    5.3000    5.3100    5.3200    5.3300    5.3400    5.3500
5.3600    5.3700    5.3800    5.3900    5.4000    5.4100    5.4200    5.4300
5.4400    5.4500    5.4600    5.4700    5.4800    5.4900    5.5000    5.5100
5.5200    5.5300    5.5400    5.5500    5.5600    5.5700    5.5800    5.5900
5.6000    5.6100    5.6200    5.6300    5.6400    5.6500    5.6600    5.6700
5.6800    5.6900    5.7000    5.7100    5.7200    5.7300    5.7400    5.7500
5.7600    5.7700    5.7800    5.7900    5.8000    5.8100    5.8200    5.8300
5.8400    5.8500    5.8600    5.8700    5.8800    5.8900    5.9000    5.9100
5.9200    5.9300    5.9400    5.9500    5.9600    5.9700    5.9800    5.9900
</PP_R>
<PP_RAB type="real"  size="600" columns="8">
0.0100    0.0100    0.0100    0.0100    0.0100    0.0100    0.0100    0.0100
0.0100    0.0100    0.0100    0.0100    0.0100    0.0100    0.0100    0.0100
0.0100    0.0100    0.0100    0.0100    0.0100    0.0100    0.0100    0.0100
0.0100    0.0100    0.0100    0.0100    0.0100    0.0100    0.0100    0.0100
0.0100    0.0100    0.0100    0.0100    0.0100    0.0100    0.0100    0.0100
0.0100    0.0100    0.0100    0.0100    0.0100    0.0100    0.0100    0.0100
0.0100    0.0100    0.0100    0.0100    0.0100    0.0100    0.0100    0.0100
0.0100    0.0100    0.0100    0.0100    0.0100    0.0100    0.0100    0.0100
0.0100    0.0100    0.0100    0.0100    0.0100    0.0100    0.0100    0.0100
0.0100    0.0100    0.0100    0.0100    0.0100    0.0100    0.0100    0.0100
0.0100    0.0100    0.0100    0.0100    0.0100    0.0100    0.0100    0.0100
0.0100    0.0100    0.0100    0.0100    0.0100    0.0100    0.0100    0.0100
0.0100    0.0100    0.0100    0.0100    0.0100    0.0100    0.0100    0.0100
0.0100    0.0100    0.0100    0.0100    0.0100    0.0100    0.0100    0.0100
0.0100    0.0100    0.0100    0.0100    0.0100    0.0100    0.0100    0.0100
0.0100    0.0100    0.0100    0.0100    0.0100    0.0100    0.0100    0.0100
0.0100    0.0100    0.0100    0.0100    0.0100    0.0100    0.0100    0.0100
0.0100    0.0100    0.0100    0.0100    0.0100    0.0100    0.0100    0.0100
0.0100    0.0100    0.0100    0.0100    0.0100    0.0100    0.0100    0.0100
0.0100    0.0100    0.0100    0.0100    0.0100    0.0100    0.0100    0.0100
0.0100    0.0100    0.0100    0.0100    0.0100    0.0100    0.0100    0.0100
0.0100    0.0100    0.0100    0.0100    0.0100    0.0100    0.0100    0.0100
0.0100    0.0100    0.0100    0.0100    0.0100    0.0100    0.0100    0.0100
0.0100    0.0100    0.0100    0.0100    0.0100    0.0100    0.0100    0.0100
0.0100    0.0100    0.0100    0.0100    0.0100    0.0100    0.0100    0.0100
0.0100    0.0100    0.0100    0.0100    0.0100    0.0100    0.0100    0.0100
0.0100    0.0100    0.0100    0.0100    0.0100    0.0100    0.0100    0.0100
0.0100    0.0100    0.0100    0.0100    0.0100    0.0100    0.0100    0.0100
0.0100    0.0100    0.0100    0.0100    0.0100    0.0100    0.0100    0.0100
0.0100    0.0100    0.0100    0.0100    0.0100    0.0100    0.0100    0.0100
0.0100    0.0100    0.0100    0.0100    0.0100    0.0100    0.0100    0.0100
0.0100    0.0100    0.0100    0.0100    0.0100    0.0100    0.0100    0.0100
0.0100    0.0100    0.0100    0.0100    0.0100    0.0100    0.0100    0.0100
0.0100    0.0100    0.0100    0.0100    0.0100    0.0100    0.0100    0.0100
0.0100    0.0100    0.0100    0.0100    0.0100    0.0100    0.0100    0.0100
0.0100    0.0100    0.0100    0.0100    0.0100    0.0100    0.0100    0.0100
0.0100    0.0100    0.0100    0.0100    0.0100    0.0100    0.0100    0.0100
0.0100    0.0100    0.0100    0.0100    0.0100    0.0100    0.0100    0.0100
0.0100    0.0100    0.0100    0.0100    0.0100    0.0100    0.0100    0.0100
0.0100    0.0100    0.0100    0.0100    0.0100    0.0100    0.0100    0.0100
0.0100    0.0100    0.0100    0.0100    0.0100    0.0100    0.0100    0.0100
0.0100    0.0100    0.0100    0.0100    0.0100    0.0100    0.0100    0.0100
0.0100    0.0100    0.0100    0.0100    0.0100    0.0100    0.0100    0.0100
0.0100    0.0100    0.0100    0.0100    0.0100    0.0100    0.0100    0.0100
0.0100    0.0100    0.0100    0.0100    0.0100    0.0100    0.0100    0.0100
0.0100    0.0100    0.0100    0.0100    0.0100    0.0100    0.0100    0.0100
0.0100    0.0100    0.0100    0.0100    0.0100    0.0100    0.0100    0.0100
0.0100    0.0100    0.0100    0.0100    0.0100    0.0100    0.0100    0.0100
0.0100    0.0100    0.0100    0.0100    0.0100    0.0100    0.0100    0.0100
0.0100    0.0100    0.0100    0.0100    0.0100    0.0100    0.0100    0.0100
0.0100    0.0100    0.0100    0.0100    0.0100    0.0100    0.0100    0.0100
0.0100    0.0100    0.0100    0.0100    0.0100    0.0100    0.0100    0.0100
0.0100    0.0100    0.0100    0.0100    0.0100    0.0100    0.0100    0.0100
0.0100    0.0100    0.0100    0.0100    0.0100    0.0100    0.0100    0.0100
0.0100    0.0100    0.0100    0.0100    0.0100    0.0100    0.0100    0.0100
0.0100    0.0100    0.0100    0.0100    0.0100    0.0100    0.0100    0.0100
0.0100    0.0100    0.0100    0.0100    0.0100    0.0100    0.0100    0.0100
0.0100    0.0100    0.0100    0.0100    0.0100    0.0100    0.0100    0.0100
0.0100    0.0100    0.0100    0.0100    0.0100    0.0100    0.0100    0.0100
0.0100    0.0100    0.0100    0.0100    0.0100    0.0100    0.0100    0.0100
0.0100    0.0100    0.0100    0.0100    0.0100    0.0100    0.0100    0.0100
0.0100    0.0100    0.0100    0.0100    0.0100    0.0100    0.0100    0.0100
0.0100    0.0100    0.0100    0.0100    0.0100    0.0100    0.0100    0.0100
0.0100    0.0100    0.0100    0.0100    0.0100    0.0100    0.0100    0.0100
0.0100    0.0100    0.0100    0.0100    0.0100    0.0100    0.0100    0.0100
0.0100    0.0100    0.0100    0.0100    0.0100    0.0100    0.0100    0.0100
0.0100    0.0100    0.0100    0.0100    0.0100    0.0100    0.0100    0.0100
0.0100    0.0100    0.0100    0.0100    0.0100    0.0100    0.0100    0.0100
0.0100    0.0100    0.0100    0.0100    0.0100    0.0100    0.0100    0.0100
0.0100    0.0100    0.0100    0.0100    0.0100    0.0100    0.0100    0.0100
0.0100    0.0100    0.0100    0.0100    0.0100    0.0100    0.0100    0.0100
0.0100    0.0100    0.0100    0.0100    0.0100    0.0100    0.0100    0.0100
0.0100    0.0100    0.0100    0.0100    0.0100    0.0100    0.0100    0.0100
0.0100    0.0100    0.0100    0.0100    0.0100    0.0100    0.0100    0.0100
0.0100    0.0100    0.0100    0.0100    0.0100    0.0100    0.0100    0.0100
</PP_RAB>
</PP_MESH>
<PP_LOCAL type="real"  size="600" columns="4">
-6.3678311929E+01   -6.3675927918E+01   -6.3668776381E+01   -6.3656859458E+01
-6.3640180139E+01   -6.3618741560E+01   -6.3592546057E+01   -6.3561594030E+01
-6.3525882700E+01   -6.3485404810E+01   -6.3440147344E+01   -6.3390090328E+01
-6.3335205740E+01   -6.3275456600E+01   -6.3210796236E+01   -6.3141167772E+01
-6.3066503819E+01   -6.2986726380E+01   -6.2901746955E+01   -6.2811466829E+01
-6.2715777527E+01   -6.2614561408E+01   -6.2507692392E+01   -6.2395036783E+01
-6.2276454192E+01   -6.2151798524E+01   -6.2020919040E+01   -6.1883661477E+01
-6.1739869219E+01   -6.1589384530E+01   -6.1432049839E+01   -6.1267709092E+01
-6.1096209167E+01   -6.0917401371E+01   -6.0731143008E+01   -6.0537299035E+01
-6.0335743801E+01   -6.0126362857E+01   -5.9909054840E+01   -5.9683733385E+01
-5.9450329050E+01   -5.9208791199E+01   -5.8959089779E+01   -5.8701216935E+01
-5.8435188376E+01   -5.8161044417E+01   -5.7878850627E+01   -5.7588698038E+01
-5.7290702852E+01   -5.6985005684E+01   -5.6671770328E+01   -5.6351182141E+01
-5.6023446119E+01   -5.5688784777E+01   -5.5347435962E+01   -5.4999650714E+01
-5.4645691266E+01   -5.4285829286E+01   -5.3920344394E+01   -5.3549522974E+01
-5.3173657295E+01   -5.2793044880E+01   -5.2407988096E+01   -5.2018793896E+01
-5.1625773645E+01   -5.1229242968E+01   -5.0829521560E+01   -5.0426932897E+01
-5.0021803820E+01   -4.9614463956E+01   -4.9205244959E+01   -4.8794479589E+01
-4.8382500625E+01   -4.7969639655E+01   -4.7556225768E+01   -4.7142584203E+01
-4.6729034986E+01   -4.6315891605E+01   -4.5903459762E+01   -4.5492036232E+01
-4.5081907848E+01   -4.4673350639E+01   -4.4266629105E+01   -4.3861995655E+01
-4.3459690177E+01   -4.3059939740E+01   -4.2662958411E+01   -4.2268947169E+01
-4.1878093904E+01   -4.1490573477E+01   -4.1106547848E+01   -4.0726166232E+01
-4.0349565305E+01   -3.9976869428E+01   -3.9608190906E+01   -3.9243630263E+01
-3.8883276544E+01   -3.8527207634E+01   -3.8175490605E+01   -3.7828182075E+01
-3.7485328603E+01   -3.7146967087E+01   -3.6813125198E+01   -3.6483821815E+01
-3.6159067479E+01   -3.5838864852E+01   -3.5523209169E+01   -3.5212088682E+01
-3.4905485091E+01   -3.4603373942E+01   -3.4305724986E+01   -3.4012502502E+01
-3.3723665556E+01   -3.3439168208E+01   -3.3158959651E+01   -3.2882984284E+01
-3.2611181710E+01   -3.2343486662E+01   -3.2079828873E+01   -3.1820132973E+01
-3.1564317999E+01   -3.1312297068E+01   -3.1063981650E+01   -3.0819285660E+01
-3.0578128466E+01   -3.0340433621E+01   -3.0106129402E+01   -2.9875148967E+01
-2.9647430587E+01   -2.9422913676E+01   -2.9201535932E+01   -2.8983238091E+01
-2.8767963330E+01   -2.8555655908E+01   -2.8346261471E+01   -2.8139726799E+01
-2.7935999576E+01   -2.7735028261E+01   -2.7536761980E+01   -2.7341150439E+01
-2.7148143865E+01   -2.6957692945E+01   -2.6769748953E+01   -2.6584263659E+01
-2.6401189641E+01   -2.6220478783E+01   -2.6042081284E+01   -2.5865944256E+01
-2.5692012680E+01   -2.5520240082E+01   -2.5350587461E+01   -2.5183014526E+01
-2.5017482113E+01   -2.4853954174E+01   -2.4692396813E+01   -2.4532778370E+01
-2.4375069510E+01   -2.4219243174E+01   -2.4065274470E+01   -2.3913140551E+01
-2.3762820431E+01   -2.3614294788E+01   -2.3467545738E+01   -2.3322556587E+01
-2.3179311591E+01   -2.3037795705E+01   -2.2897994349E+01   -2.2759893178E+01
-2.2623477918E+01   -2.2488734254E+01   -2.2355647105E+01   -2.2224201521E+01
-2.2094382408E+01   -2.1966173564E+01   -2.1839560792E+01   -2.1714522659E+01
-2.1591024951E+01   -2.1469022015E+01   -2.1348439241E+01   -2.1229195404E+01
-2.1111253978E+01   -2.0994612620E+01   -2.0879258732E+01   -2.0765163101E+01
-2.0652300898E+01   -2.0540655102E+01   -2.0430209047E+01   -2.0320947165E+01
-2.0212853745E+01   -2.0105907687E+01   -2.0000086895E+01   -1.9895372753E+01
-1.9791749091E+01   -1.9689199693E+01   -1.9587707644E+01   -1.9487256485E+01
-1.9387830357E+01   -1.9289413658E+01   -1.9191991092E+01   -1.9095547670E+01
-1.9000068705E+01   -1.8905539802E+01   -1.8811946849E+01   -1.8719276016E+01
-1.8627513740E+01   -1.8536646725E+01   -1.8446661934E+01   -1.8357546580E+01
-1.8269288122E+01   -1.8181874260E+01   -1.8095292929E+01   -1.8009532291E+01
-1.7924580732E+01   -1.7840426855E+01   -1.7757059480E+01   -1.7674467629E+01
-1.7592640533E+01   -1.7511567618E+01   -1.7431238506E+01   -1.7351643006E+01
-1.7272771115E+01   -1.7194613009E+01   -1.7117159044E+01   -1.7040399745E+01
-1.6964325809E+01   -1.6888928098E+01   -1.6814197635E+01   -1.6740125600E+01
-1.6666703332E+01   -1.6593922317E+01   -1.6521774190E+01   -1.6450250733E+01
-1.6379343867E+01   -1.6309045654E+01   -1.6239348289E+01   -1.6170244103E+01
-1.6101725555E+01   -1.6033785231E+01   -1.5966415842E+01   -1.5899610223E+01
-1.5833361325E+01   -1.5767662219E+01   -1.5702506088E+01   -1.5637886230E+01
-1.5573796049E+01   -1.5510229062E+01   -1.5447178886E+01   -1.5384639245E+01
-1.5322603963E+01   -1.5261066963E+01   -1.5200022266E+01   -1.5139463987E+01
-1.5079386335E+01   -1.5019783612E+01   -1.4960650207E+01   -1.4901980600E+01
-1.4843769355E+01   -1.4786011121E+01   -1.4728700631E+01   -1.4671832698E+01
-1.4615402217E+01   -1.4559404158E+01   -1.4503833570E+01   -1.4448685577E+01
-1.4393955377E+01   -1.4339638240E+01   -1.4285729507E+01   -1.4232224589E+01
-1.4179118966E+01   -1.4126408185E+01   -1.4074087859E+01   -1.4022153664E+01
-1.3970601343E+01   -1.3919426699E+01   -1.3868625596E+01   -1.3818193959E+01
-1.3768127773E+01   -1.3718423080E+01   -1.3669075978E+01   -1.3620082622E+01
-1.3571439222E+01   -1.3523142042E+01   -1.3475187399E+01   -1.3427571661E+01
-1.3380291249E+01   -1.3333342632E+01   -1.3286722330E+01   -1.3240426912E+01
-1.3194452992E+01   -1.3148797235E+01   -1.3103456347E+01   -1.3058427084E+01
-1.3013706243E+01   -1.2969290666E+01   -1.2925177239E+01   -1.2881362889E+01
-1.2837844585E+01   -1.2794619335E+01   -1.2751684191E+01   -1.2709036240E+01
-1.2666672612E+01   -1.2624590472E+01   -1.2582787024E+01   -1.2541259509E+01
-1.2500005203E+01   -1.2459021420E+01   -1.2418305507E+01   -1.2377854846E+01
-1.2337666854E+01   -1.2297738981E+01   -1.2258068709E+01   -1.2218653553E+01
-1.2179491060E+01   -1.2140578809E+01   -1.2101914409E+01   -1.2063495499E+01
-1.2025319748E+01   -1.1987384856E+01   -1.1949688550E+01   -1.1912228586E+01
-1.1875002748E+01   -1.1838008849E+01   -1.1801244727E+01   -1.1764708249E+01
-1.1728397306E+01   -1.1692309817E+01   -1.1656443725E+01   -1.1620796999E+01
-1.1585367632E+01   -1.1550153644E+01   -1.1515153075E+01   -1.1480363991E+01
-1.1445784481E+01   -1.1411412657E+01   -1.1377246655E+01   -1.1343284629E+01
-1.1309524760E+01   -1.1275965248E+01   -1.1242604314E+01   -1.1209440201E+01
-1.1176471172E+01   -1.1143695511E+01   -1.1111111522E+01   -1.1078717528E+01
-1.1046511872E+01   -1.1014492917E+01   -1.0982659044E+01   -1.0951008653E+01
-1.0919540162E+01   -1.0888252006E+01   -1.0857142642E+01   -1.0826210540E+01
-1.0795454189E+01   -1.0764872096E+01   -1.0734462785E+01   -1.0704224794E+01
-1.0674156681E+01   -1.0644257018E+01   -1.0614524393E+01   -1.0584957410E+01
-1.0555554689E+01   -1.0526314865E+01   -1.0497236588E+01   -1.0468318523E+01
-1.0439559349E+01   -1.0410957760E+01   -1.0382512465E+01   -1.0354222186E+01
-1.0326085659E+01   -1.0298101635E+01   -1.0270268876E+01   -1.0242586160E+01
-1.0215052277E+01   -1.0187666029E+01   -1.0160426232E+01   -1.0133331715E+01
-1.0106381319E+01   -1.0079573896E+01   -1.0052908312E+01   -1.0026383444E+01
-9.9999981811E+00   -9.9737514245E+00   -9.9476420860E+00   -9.9216690894E+00
-9.8958313694E+00   -9.8701278720E+00   -9.8445575539E+00   -9.8191193827E+00
-9.7938123368E+00   -9.7686354047E+00   -9.7435875857E+00   -9.7186678891E+00
-9.6938753343E+00   -9.6692089508E+00   -9.6446677780E+00   -9.6202508647E+00
-9.5959572697E+00   -9.5717860611E+00   -9.5477363164E+00   -9.5238071222E+00
-9.4999975745E+00   -9.4763067781E+00   -9.4527338468E+00   -9.4292779033E+00
-9.4059380787E+00   -9.3827135130E+00   -9.3596033544E+00   -9.3366067597E+00
-9.3137228938E+00   -9.2909509299E+00   -9.2682900491E+00   -9.2457394407E+00
-9.2232983016E+00   -9.2009658367E+00   -9.1787412585E+00   -9.1566237871E+00
-9.1346126500E+00   -9.1127070823E+00   -9.0909063263E+00   -9.0692096315E+00
-9.0476162547E+00   -9.0261254596E+00   -9.0047365169E+00   -8.9834487043E+00
-8.9622613062E+00   -8.9411736138E+00   -8.9201849250E+00   -8.8992945442E+00
-8.8785017822E+00   -8.8578059566E+00   -8.8372063908E+00   -8.8167024150E+00
-8.7962933653E+00   -8.7759785839E+00   -8.7557574194E+00   -8.7356292260E+00
-8.7155933640E+00   -8.6956491995E+00   -8.6757961046E+00   -8.6560334568E+00
-8.6363606394E+00   -8.6167770415E+00   -8.5972820573E+00   -8.5778750868E+00
-8.5585555353E+00   -8.5393228135E+00   -8.5201763373E+00   -8.5011155278E+00
-8.4821398115E+00   -8.4632486197E+00   -8.4444413890E+00   -8.4257175608E+00
-8.4070765816E+00   -8.3885179027E+00   -8.3700409803E+00   -8.3516452753E+00
-8.3333302534E+00   -8.3150953850E+00   -8.2969401450E+00   -8.2788640129E+00
-8.2608664729E+00   -8.2429470134E+00   -8.2251051275E+00   -8.2073403126E+00
-8.1896520703E+00   -8.1720399066E+00   -8.1545033317E+00   -8.1370418601E+00
-8.1196550103E+00   -8.1023423049E+00   -8.0851032708E+00   -8.0679374386E+00
-8.0508443432E+00   -8.0338235231E+00   -8.0168745209E+00   -7.9999968831E+00
-7.9831901598E+00   -7.9664539051E+00   -7.9497876767E+00   -7.9331910359E+00
-7.9166635480E+00   -7.9002047815E+00   -7.8838143087E+00   -7.8674917055E+00
-7.8512365511E+00   -7.8350484284E+00   -7.8189269236E+00   -7.8028716263E+00
-7.7868821295E+00   -7.7709580294E+00   -7.7550989258E+00   -7.7393044214E+00
-7.7235741224E+00   -7.7079076381E+00   -7.6923045810E+00   -7.6767645665E+00
-7.6612872135E+00   -7.6458721437E+00   -7.6305189818E+00   -7.6152273557E+00
-7.5999968962E+00   -7.5848272370E+00   -7.5697180147E+00   -7.5546688689E+00
-7.5396794420E+00   -7.5247493792E+00   -7.5098783286E+00   -7.4950659409E+00
-7.4803118698E+00   -7.4656157715E+00   -7.4509773050E+00   -7.4363961320E+00
-7.4218719167E+00   -7.4074043261E+00   -7.3929930297E+00   -7.3786376995E+00
-7.3643380101E+00   -7.3500936387E+00   -7.3359042650E+00   -7.3217695709E+00
-7.3076892411E+00   -7.2936629625E+00   -7.2796904245E+00   -7.2657713187E+00
-7.2519053394E+00   -7.2380921828E+00   -7.2243315478E+00   -7.2106231353E+00
-7.1969666487E+00   -7.1833617934E+00   -7.1698082773E+00   -7.1563058102E+00
-7.1428541042E+00   -7.1294528737E+00   -7.1161018352E+00   -7.1028007071E+00
-7.0895492100E+00   -7.0763470668E+00   -7.0631940022E+00   -7.0500897431E+00
-7.0370340183E+00   -7.0240265587E+00   -7.0110670971E+00   -6.9981553683E+00
-6.9852911091E+00   -6.9724740583E+00   -6.9597039563E+00   -6.9469805458E+00
-6.9343035712E+00   -6.9216727786E+00   -6.9090879161E+00   -6.8965487338E+00
-6.8840549833E+00   -6.8716064181E+00   -6.8592027937E+00   -6.8468438670E+00
-6.8345293969E+00   -6.8222591439E+00   -6.8100328704E+00   -6.7978503402E+00
-6.7857113191E+00   -6.7736155744E+00   -6.7615628750E+00   -6.7495529916E+00
-6.7375856965E+00   -6.7256607635E+00   -6.7137779681E+00   -6.7019370873E+00
-6.6901378998E+00   -6.6783801857E+00   -6.6666637267E+00   -6.6549883062E+00
-6.6433537088E+00   -6.6317597209E+00   -6.6202061301E+00   -6.6086927257E+00
-6.5972192985E+00   -6.5857856405E+00   -6.5743915453E+00   -6.5630368080E+00
-6.5517212250E+00   -6.5404445941E+00   -6.5292067145E+00   -6.5180073868E+00
-6.5068464130E+00   -6.4957235964E+00   -6.4846387416E+00   -6.4735916547E+00
-6.4625821429E+00   -6.4516100148E+00   -6.4406750804E+00   -6.4297771509E+00
-6.4189160388E+00   -6.4080915577E+00   -6.3973035227E+00   -6.3865517500E+00
-6.3758360571E+00   -6.3651562626E+00   -6.3545121866E+00   -6.3439036501E+00
</PP_LOCAL>
<PP_NONLOCAL>
<PP_BETA.1
type="real"
size="600"
columns="4"
index="1"
angular_momentum="0"
cutoff_radius_index=" 180"
cutoff_radius="    1.7900000000E+00" >
-3.4325252640E-09    1.0417388479E-01    2.0789667519E-01    3.1072085867E-01
4.1220603606E-01    5.1192235332E-01    6.0945378584E-01    7.0440123029E-01
7.9638536251E-01    8.8504922383E-01    9.7006050341E-01    1.0511134893E+00
1.1279306671E+00    1.2002639503E+00    1.2678955350E+00    1.3306383758E+00
1.3883362876E+00    1.4408636840E+00    1.4881249707E+00    1.5300536147E+00
1.5666109191E+00    1.5977845365E+00    1.6235867566E+00    1.6440526106E+00
1.6592378344E+00    1.6692167339E+00    1.6740800011E+00    1.6739325233E+00
1.6688912312E+00    1.6590830286E+00    1.6446428424E+00    1.6257118304E+00
1.6024357777E+00    1.5749637094E+00    1.5434467416E+00    1.5080371857E+00
1.4688879161E+00    1.4261520048E+00    1.3799826196E+00    1.3305331762E+00
1.2779577284E+00    1.2224115760E+00    1.1640520623E+00    1.1030395297E+00
1.0395383979E+00    9.7371832491E-01    9.0575540967E-01    8.3583339113E-01
7.6414480092E-01    6.9089202436E-01    6.1628822693E-01    5.4055810531E-01
4.6393842476E-01    3.8667830885E-01    3.0903925223E-01    2.3129483228E-01
1.5373010196E-01    7.6640652384E-02    3.3134086804E-04   -7.4885312818E-02
-1.4869105177E-01   -2.2076411144E-01   -2.9078172878E-01   -3.5842289970E-01
-4.2337134731E-01   -4.8531865762E-01   -5.4396753442E-01   -5.9903512099E-01
-6.5025633301E-01   -6.9738714486E-01   -7.4020777049E-01   -7.7852567987E-01
-8.1217839334E-01   -8.4103599829E-01   -8.6500333611E-01   -8.8402181174E-01
-8.9807078355E-01   -9.0716849765E-01   -9.1137253796E-01   -9.1077977104E-01
-9.0552577323E-01   -8.9578373616E-01   -8.8176285609E-01   -8.6370622108E-01
-8.4188821943E-01   -8.1661150109E-01   -7.8820353244E-01   -7.5701279193E-01
-7.2340466144E-01   -6.8775707395E-01   -6.5045598306E-01   -6.1189072399E-01
-5.7244933803E-01   -5.3251393398E-01   -4.9245616024E-01   -4.5263285961E-01
-4.1338197678E-01   -3.7501878416E-01   -3.3783248689E-01   -3.0208326155E-01
-2.6799977584E-01   -2.3577722829E-01   -2.0557593808E-01   -1.7752050563E-01
-1.5169955443E-01   -1.2816605424E-01   -1.0693821609E-01   -8.8000938412E-02
-7.1307774193E-02   -5.6783379710E-02   -4.4326396306E-02   -3.3812709475E-02
-2.5099021492E-02   -1.8026668932E-02   -1.2425611422E-02   -8.1185150941E-03
-4.9248515040E-03   -2.6649312429E-03   -1.1637956201E-03   -2.5494563077E-04
2.1639020110E-04    3.9021807592E-04    3.8721149569E-04    3.0391006194E-04
2.0704604045E-04    1.5049655883E-04    1.2713116411E-04    5.5192840816E-05
-8.4423356083E-06   -4.7938869478E-06    2.7240907177E-06   -1.4872838791E-07
-2.1702324056E-07    0.0000000000E+00    0.0000000000E+00    0.0000000000E+00
0.0000000000E+00    0.0000000000E+00    0.0000000000E+00    0.0000000000E+00
0.0000000000E+00    0.0000000000E+00    0.0000000000E+00    0.0000000000E+00
0.0000000000E+00    0.0000000000E+00    0.0000000000E+00    0.0000000000E+00
0.0000000000E+00    0.0000000000E+00    0.0000000000E+00    0.0000000000E+00
0.0000000000E+00    0.0000000000E+00    0.0000000000E+00    0.0000000000E+00
0.0000000000E+00    0.0000000000E+00    0.0000000000E+00    0.0000000000E+00
0.0000000000E+00    0.0000000000E+00    0.0000000000E+00    0.0000000000E+00
0.0000000000E+00    0.0000000000E+00    0.0000000000E+00    0.0000000000E+00
0.0000000000E+00    0.0000000000E+00    0.0000000000E+00    0.0000000000E+00
0.0000000000E+00    0.0000000000E+00    0.0000000000E+00    0.0000000000E+00
0.0000000000E+00    0.0000000000E+00    0.0000000000E+00    0.0000000000E+00
0. 0. 0. 0.
0. 0. 0. 0.
0. 0. 0. 0.
0. 0. 0. 0.
0. 0. 0. 0.
0. 0. 0. 0.
0. 0. 0. 0.
0. 0. 0. 0.
0. 0. 0. 0.
0. 0. 0. 0.
0. 0. 0. 0.
0. 0. 0. 0.
0. 0. 0. 0.
0. 0. 0. 0.
0. 0. 0. 0.
0. 0. 0. 0.
0. 0. 0. 0.
0. 0. 0. 0.
0. 0. 0. 0.
0. 0. 0. 0.
0. 0. 0. 0.
0. 0. 0. 0.
0. 0. 0. 0.
0. 0. 0. 0.
0. 0. 0. 0.
0. 0. 0. 0.
0. 0. 0. 0.
0. 0. 0. 0.
0. 0. 0. 0.
0. 0. 0. 0.
0. 0. 0. 0.
0. 0. 0. 0.
0. 0. 0. 0.
0. 0. 0. 0.
0. 0. 0. 0.
0. 0. 0. 0.
0. 0. 0. 0.
0. 0. 0. 0.
0. 0. 0. 0.
0. 0. 0. 0.
0. 0. 0. 0.
0. 0. 0. 0.
0. 0. 0. 0.
0. 0. 0. 0.
0. 0. 0. 0.
0. 0. 0. 0.
0. 0. 0. 0.
0. 0. 0. 0.
0. 0. 0. 0.
0. 0. 0. 0.
0. 0. 0. 0.
0. 0. 0. 0.
0. 0. 0. 0.
0. 0. 0. 0.
0. 0. 0. 0.
0. 0. 0. 0.
0. 0. 0. 0.