<UPF version="2.0.1">
<PP_INFO>
NOTE!!!!
This file is trimmed with a mesh size of 600 from the original version.
Trimming performed at 2023-03-31 09:10:05.027928 by trim_upf.py version 0.1.0

This pseudopotential file has been produced using the code
ONCVPSP  (Optimized Norm-Conservinng Vanderbilt PSeudopotential)
scalar-relativistic version 3.3.0 08/16/2017 by D. R. Hamann
The code is available through a link at URL www.mat-simresearch.com.
Documentation with the package provides a full discription of the
input data below.
While it is not required under the terms of the GNU GPL, it is
suggested that you cite D. R. Hamann, Phys. Rev. B 88, 085117 (2013)
in any publication using these pseudopotentials.
<PP_INPUTFILE>
# ATOM AND REFERENCE CONFIGURATION
# atsym  z   nc   nv     iexc    psfile
Fe 26.00    3    4       4      upf
#
#   n    l    f        energy (Ha)
1    0    2.00
2    0    2.00
2    1    6.00
3    0    2.00
3    1    6.00
3    2    6.00
4    0    2.00
#
# PSEUDOPOTENTIAL AND OPTIMIZATION
# lmax
2
#
#   l,   rc,      ep,       ncon, nbas, qcut
0   1.25000  -3.45509    3    7   9.40000
1   1.20000  -2.20653    3    7   9.40000
2   1.55000  -0.27580    3    7   9.40000
#
# LOCAL POTENTIAL
# lloc, lpopt,  rc(5),   dvloc0
4    5   1.10000      0.00000
#
# VANDERBILT-KLEINMAN-BYLANDER PROJECTORs
# l, nproj, debl
0    2   3.26061
1    2   2.15783
2    2   0.80000
#
# MODEL CORE CHARGE
# icmod, fcfact, rcfact
3   3.00000   1.70000
#
# LOG DERIVATIVE ANALYSIS
# epsh1, epsh2, depsh
-24.00   12.00    0.02
#
# OUTPUT GRID
# rlmax, drl
6.00    0.01
#
# TEST CONFIGURATIONS
# ncnf
0
# nvcnf
#   n    l    f
</PP_INPUTFILE>
</PP_INFO>
<!--                               -->
<!-- END OF HUMAN READABLE SECTION -->
<!--                               -->
<PP_HEADER
generated="Generated using ONCVPSP code by D. R. Hamann"
author="anonymous"
date="171031"
comment=""
element="Fe"
pseudo_type="NC"
relativistic="scalar"
is_ultrasoft="F"
is_paw="F"
is_coulomb="F"
has_so="F"
has_wfc="F"
has_gipaw="F"
core_correction="T"
functional="PBE"
z_valence="   16.00"
total_psenergy="  -2.43215564830E+02"
rho_cutoff="   1.42500000000E+01"
l_max="2"
l_local="-1"
mesh_size="   600"
number_of_wfc="4"
number_of_proj="6"/>
<PP_MESH>
<PP_R type="real"  size="600" columns="8">
0.0000    0.0100    0.0200    0.0300    0.0400    0.0500    0.0600    0.0700
0.0800    0.0900    0.1000    0.1100    0.1200    0.1300    0.1400    0.1500
0.1600    0.1700    0.1800    0.1900    0.2000    0.2100    0.2200    0.2300
0.2400    0.2500    0.2600    0.2700    0.2800    0.2900    0.3000    0.3100
0.3200    0.3300    0.3400    0.3500    0.3600    0.3700    0.3800    0.3900
0.4000    0.4100    0.4200    0.4300    0.4400    0.4500    0.4600    0.4700
0.4800    0.4900    0.5000    0.5100    0.5200    0.5300    0.5400    0.5500
0.5600    0.5700    0.5800    0.5900    0.6000    0.6100    0.6200    0.6300
0.6400    0.6500    0.6600    0.6700    0.6800    0.6900    0.7000    0.7100
0.7200    0.7300    0.7400    0.7500    0.7600    0.7700    0.7800    0.7900
0.8000    0.8100    0.8200    0.8300    0.8400    0.8500    0.8600    0.8700
0.8800    0.8900    0.9000    0.9100    0.9200    0.9300    0.9400    0.9500
0.9600    0.9700    0.9800    0.9900    1.0000    1.0100    1.0200    1.0300
1.0400    1.0500    1.0600    1.0700    1.0800    1.0900    1.1000    1.1100
1.1200    1.1300    1.1400    1.1500    1.1600    1.1700    1.1800    1.1900
1.2000    1.2100    1.2200    1.2300    1.2400    1.2500    1.2600    1.2700
1.2800    1.2900    1.3000    1.3100    1.3200    1.3300    1.3400    1.3500
1.3600    1.3700    1.3800    1.3900    1.4000    1.4100    1.4200    1.4300
1.4400    1.4500    1.4600    1.4700    1.4800    1.4900    1.5000    1.5100
1.5200    1.5300    1.5400    1.5500    1.5600    1.5700    1.5800    1.5900
1.6000    1.6100    1.6200    1.6300    1.6400    1.6500    1.6600    1.6700
1.6800    1.6900    1.7000    1.7100    1.7200    1.7300    1.7400    1.7500
1.7600    1.7700    1.7800    1.7900    1.8000    1.8100    1.8200    1.8300
1.8400    1.8500    1.8600    1.8700    1.8800    1.8900    1.9000    1.9100
1.9200    1.9300    1.9400    1.9500    1.9600    1.9700    1.9800    1.9900
2.0000    2.0100    2.0200    2.0300    2.0400    2.0500    2.0600    2.0700
2.0800    2.0900    2.1000    2.1100    2.1200    2.1300    2.1400    2.1500
2.1600    2.1700    2.1800    2.1900    2.2000    2.2100    2.2200    2.2300
2.2400    2.2500    2.2600    2.2700    2.2800    2.2900    2.3000    2.3100
2.3200    2.3300    2.3400    2.3500    2.3600    2.3700    2.3800    2.3900
2.4000    2.4100    2.4200    2.4300    2.4400    2.4500    2.4600    2.4700
2.4800    2.4900    2.5000    2.5100    2.5200    2.5300    2.5400    2.5500
2.5600    2.5700    2.5800    2.5900    2.6000    2.6100    2.6200    2.6300
2.6400    2.6500    2.6600    2.6700    2.6800    2.6900    2.7000    2.7100
2.7200    2.7300    2.7400    2.7500    2.7600    2.7700    2.7800    2.7900
2.8000    2.8100    2.8200    2.8300    2.8400    2.8500    2.8600    2.8700
2.8800    2.8900    2.9000    2.9100    2.9200    2.9300    2.9400    2.9500
2.9600    2.9700    2.9800    2.9900    3.0000    3.0100    3.0200    3.0300
3.0400    3.0500    3.0600    3.0700    3.0800    3.0900    3.1000    3.1100
3.1200    3.1300    3.1400    3.1500    3.1600    3.1700    3.1800    3.1900
3.2000    3.2100    3.2200    3.2300    3.2400    3.2500    3.2600    3.2700
3.2800    3.2900    3.3000    3.3100    3.3200    3.3300    3.3400    3.3500
3.3600    3.3700    3.3800    3.3900    3.4000    3.4100    3.4200    3.4300
3.4400    3.4500    3.4600    3.4700    3.4800    3.4900    3.5000    3.5100
3.5200    3.5300    3.5400    3.5500    3.5600    3.5700    3.5800    3.5900
3.6000    3.6100    3.6200    3.6300    3.6400    3.6500    3.6600    3.6700
3.6800    3.6900    3.7000    3.7100    3.7200    3.7300    3.7400    3.7500
3.7600    3.7700    3.7800    3.7900    3.8000    3.8100    3.8200    3.8300
3.8400    3.8500    3.8600    3.8700    3.8800    3.8900    3.9000    3.9100
3.9200    3.9300    3.9400    3.9500    3.9600    3.9700    3.9800    3.9900
4.0000    4.0100    4.0200    4.0300    4.0400    4.0500    4.0600    4.0700
4.0800    4.0900    4.1000    4.1100    4.1200    4.1300    4.1400    4.1500
4.1600    4.1700    4.1800    4.1900    4.2000    4.2100    4.2200    4.2300
4.2400    4.2500    4.2600    4.2700    4.2800    4.2900    4.3000    4.3100
4.3200    4.3300    4.3400    4.3500    4.3600    4.3700    4.3800    4.3900
4.4000    4.4100    4.4200    4.4300    4.4400    4.4500    4.4600    4.4700
4.4800    4.4900    4.5000    4.5100    4.5200    4.5300    4.5400    4.5500
4.5600    4.5700    4.5800    4.5900    4.6000    4.6100    4.6200    4.6300
4.6400    4.6500    4.6600    4.6700    4.6800    4.6900    4.7000    4.7100
4.7200    4.7300    4.7400    4.7500    4.7600    4.7700    4.7800    4.7900
4.8000    4.8100    4.8200    4.8300    4.8400    4.8500    4.8600    4.8700
4.8800    4.8900    4.9000    4.9100    4.9200    4.9300    4.9400    4.9500
4.9600    4.9700    4.9800    4.9900    5.0000    5.0100    5.0200    5.0300
5.0400    5.0500    5.0600    5.0700    5.0800    5.0900    5.1000    5.1100
5.1200    5.1300    5.1400    5.1500    5.1600    5.1700    5.1800    5.1900
5.2000    5.2100    5.2200    5.2300    5.2400    5.2500    5.2600    5.2700
5.2800    5.2900    5.3000    5.3100    5.3200    5.3300    5.3400    5.3500
5.3600    5.3700    5.3800    5.3900    5.4000    5.4100    5.4200    5.4300
5.4400    5.4500    5.4600    5.4700    5.4800    5.4900    5.5000    5.5100
5.5200    5.5300    5.5400    5.5500    5.5600    5.5700    5.5800    5.5900
5.6000    5.6100    5.6200    5.6300    5.6400    5.6500    5.6600    5.6700
5.6800    5.6900    5.7000    5.7100    5.7200    5.7300    5.7400    5.7500
5.7600    5.7700    5.7800    5.7900    5.8000    5.8100    5.8200    5.8300
5.8400    5.8500    5.8600    5.8700    5.8800    5.8900    5.9000    5.9100
5.9200    5.9300    5.9400    5.9500    5.9600    5.9700    5.9800    5.9900
</PP_R>
<PP_RAB type="real"  size="600" columns="8">
0.0100    0.0100    0.0100    0.0100    0.0100    0.0100    0.0100    0.0100
0.0100    0.0100    0.0100    0.0100    0.0100    0.0100    0.0100    0.0100
0.0100    0.0100    0.0100    0.0100    0.0100    0.0100    0.0100    0.0100
0.0100    0.0100    0.0100    0.0100    0.0100    0.0100    0.0100    0.0100
0.0100    0.0100    0.0100    0.0100    0.0100    0.0100    0.0100    0.0100
0.0100    0.0100    0.0100    0.0100    0.0100    0.0100    0.0100    0.0100
0.0100    0.0100    0.0100    0.0100    0.0100    0.0100    0.0100    0.0100
0.0100    0.0100    0.0100    0.0100    0.0100    0.0100    0.0100    0.0100
0.0100    0.0100    0.0100    0.0100    0.0100    0.0100    0.0100    0.0100
0.0100    0.0100    0.0100    0.0100    0.0100    0.0100    0.0100    0.0100
0.0100    0.0100    0.0100    0.0100    0.0100    0.0100    0.0100    0.0100
0.0100    0.0100    0.0100    0.0100    0.0100    0.0100    0.0100    0.0100
0.0100    0.0100    0.0100    0.0100    0.0100    0.0100    0.0100    0.0100
0.0100    0.0100    0.0100    0.0100    0.0100    0.0100    0.0100    0.0100
0.0100    0.0100    0.0100    0.0100    0.0100    0.0100    0.0100    0.0100
0.0100    0.0100    0.0100    0.0100    0.0100    0.0100    0.0100    0.0100
0.0100    0.0100    0.0100    0.0100    0.0100    0.0100    0.0100    0.0100
0.0100    0.0100    0.0100    0.0100    0.0100    0.0100    0.0100    0.0100
0.0100    0.0100    0.0100    0.0100    0.0100    0.0100    0.0100    0.0100
0.0100    0.0100    0.0100    0.0100    0.0100    0.0100    0.0100    0.0100
0.0100    0.0100    0.0100    0.0100    0.0100    0.0100    0.0100    0.0100
0.0100    0.0100    0.0100    0.0100    0.0100    0.0100    0.0100    0.0100
0.0100    0.0100    0.0100    0.0100    0.0100    0.0100    0.0100    0.0100
0.0100    0.0100    0.0100    0.0100    0.0100    0.0100    0.0100    0.0100
0.0100    0.0100    0.0100    0.0100    0.0100    0.0100    0.0100    0.0100
0.0100    0.0100    0.0100    0.0100    0.0100    0.0100    0.0100    0.0100
0.0100    0.0100    0.0100    0.0100    0.0100    0.0100    0.0100    0.0100
0.0100    0.0100    0.0100    0.0100    0.0100    0.0100    0.0100    0.0100
0.0100    0.0100    0.0100    0.0100    0.0100    0.0100    0.0100    0.0100
0.0100    0.0100    0.0100    0.0100    0.0100    0.0100    0.0100    0.0100
0.0100    0.0100    0.0100    0.0100    0.0100    0.0100    0.0100    0.0100
0.0100    0.0100    0.0100    0.0100    0.0100    0.0100    0.0100    0.0100
0.0100    0.0100    0.0100    0.0100    0.0100    0.0100    0.0100    0.0100
0.0100    0.0100    0.0100    0.0100    0.0100    0.0100    0.0100    0.0100
0.0100    0.0100    0.0100    0.0100    0.0100    0.0100    0.0100    0.0100
0.0100    0.0100    0.0100    0.0100    0.0100    0.0100    0.0100    0.0100
0.0100    0.0100    0.0100    0.0100    0.0100    0.0100    0.0100    0.0100
0.0100    0.0100    0.0100    0.0100    0.0100    0.0100    0.0100    0.0100
0.0100    0.0100    0.0100    0.0100    0.0100    0.0100    0.0100    0.0100
0.0100    0.0100    0.0100    0.0100    0.0100    0.0100    0.0100    0.0100
0.0100    0.0100    0.0100    0.0100    0.0100    0.0100    0.0100    0.0100
0.0100    0.0100    0.0100    0.0100    0.0100    0.0100    0.0100    0.0100
0.0100    0.0100    0.0100    0.0100    0.0100    0.0100    0.0100    0.0100
0.0100    0.0100    0.0100    0.0100    0.0100    0.0100    0.0100    0.0100
0.0100    0.0100    0.0100    0.0100    0.0100    0.0100    0.0100    0.0100
0.0100    0.0100    0.0100    0.0100    0.0100    0.0100    0.0100    0.0100
0.0100    0.0100    0.0100    0.0100    0.0100    0.0100    0.0100    0.0100
0.0100    0.0100    0.0100    0.0100    0.0100    0.0100    0.0100    0.0100
0.0100    0.0100    0.0100    0.0100    0.0100    0.0100    0.0100    0.0100
0.0100    0.0100    0.0100    0.0100    0.0100    0.0100    0.0100    0.0100
0.0100    0.0100    0.0100    0.0100    0.0100    0.0100    0.0100    0.0100
0.0100    0.0100    0.0100    0.0100    0.0100    0.0100    0.0100    0.0100
0.0100    0.0100    0.0100    0.0100    0.0100    0.0100    0.0100    0.0100
0.0100    0.0100    0.0100    0.0100    0.0100    0.0100    0.0100    0.0100
0.0100    0.0100    0.0100    0.0100    0.0100    0.0100    0.0100    0.0100
0.0100    0.0100    0.0100    0.0100    0.0100    0.0100    0.0100    0.0100
0.0100    0.0100    0.0100    0.0100    0.0100    0.0100    0.0100    0.0100
0.0100    0.0100    0.0100    0.0100    0.0100    0.0100    0.0100    0.0100
0.0100    0.0100    0.0100    0.0100    0.0100    0.0100    0.0100    0.0100
0.0100    0.0100    0.0100    0.0100    0.0100    0.0100    0.0100    0.0100
0.0100    0.0100    0.0100    0.0100    0.0100    0.0100    0.0100    0.0100
0.0100    0.0100    0.0100    0.0100    0.0100    0.0100    0.0100    0.0100
0.0100    0.0100    0.0100    0.0100    0.0100    0.0100    0.0100    0.0100
0.0100    0.0100    0.0100    0.0100    0.0100    0.0100    0.0100    0.0100
0.0100    0.0100    0.0100    0.0100    0.0100    0.0100    0.0100    0.0100
0.0100    0.0100    0.0100    0.0100    0.0100    0.0100    0.0100    0.0100
0.0100    0.0100    0.0100    0.0100    0.0100    0.0100    0.0100    0.0100
0.0100    0.0100    0.0100    0.0100    0.0100    0.0100    0.0100    0.0100
0.0100    0.0100    0.0100    0.0100    0.0100    0.0100    0.0100    0.0100
0.0100    0.0100    0.0100    0.0100    0.0100    0.0100    0.0100    0.0100
0.0100    0.0100    0.0100    0.0100    0.0100    0.0100    0.0100    0.0100
0.0100    0.0100    0.0100    0.0100    0.0100    0.0100    0.0100    0.0100
0.0100    0.0100    0.0100    0.0100    0.0100    0.0100    0.0100    0.0100
0.0100    0.0100    0.0100    0.0100    0.0100    0.0100    0.0100    0.0100
0.0100    0.0100    0.0100    0.0100    0.0100    0.0100    0.0100    0.0100
</PP_RAB>
</PP_MESH>
<PP_LOCAL type="real"  size="600" columns="4">
-5.9380514799E+01   -5.9377078076E+01   -5.9366767471E+01   -5.9349581924E+01
-5.9325519595E+01   -5.9294577795E+01   -5.9256752892E+01   -5.9212040195E+01
-5.9160433830E+01   -5.9101926610E+01   -5.9036509917E+01   -5.8964173599E+01
-5.8884905885E+01   -5.8798693342E+01   -5.8705520859E+01   -5.8605371684E+01
-5.8498227503E+01   -5.8384068577E+01   -5.8262873922E+01   -5.8134621554E+01
-5.7999288779E+01   -5.7856852531E+01   -5.7707289771E+01   -5.7550577913E+01
-5.7386695306E+01   -5.7215621741E+01   -5.7037338994E+01   -5.6851831394E+01
-5.6659086405E+01   -5.6459095230E+01   -5.6251853419E+01   -5.6037361479E+01
-5.5815625479E+01   -5.5586657654E+01   -5.5350476981E+01   -5.5107109745E+01
-5.4856590073E+01   -5.4598960438E+01   -5.4334272127E+01   -5.4062585668E+01
-5.3783971204E+01   -5.3498508835E+01   -5.3206288885E+01   -5.2907412134E+01
-5.2601989983E+01   -5.2290144561E+01   -5.1972008779E+01   -5.1647726327E+01
-5.1317451607E+01   -5.0981349626E+01   -5.0639595824E+01   -5.0292375861E+01
-4.9939885358E+01   -4.9582329598E+01   -4.9219923180E+01   -4.8852889650E+01
-4.8481461089E+01   -4.8105877679E+01   -4.7726387234E+01   -4.7343244712E+01
-4.6956711696E+01   -4.6567055857E+01   -4.6174550386E+01   -4.5779473411E+01
-4.5382107389E+01   -4.4982738469E+01   -4.4581655845E+01   -4.4179151081E+01
-4.3775517416E+01   -4.3371049062E+01   -4.2966040474E+01   -4.2560785618E+01
-4.2155577233E+01   -4.1750706076E+01   -4.1346460188E+01   -4.0943124144E+01
-4.0540978328E+01   -4.0140298215E+01   -3.9741353669E+01   -3.9344408269E+01
-3.8949718651E+01   -3.8557533889E+01   -3.8168094892E+01   -3.7781633841E+01
-3.7398373656E+01   -3.7018527496E+01   -3.6642298289E+01   -3.6269878300E+01
-3.5901448721E+01   -3.5537179310E+01   -3.5177228039E+01   -3.4821740791E+01
-3.4470851074E+01   -3.4124679767E+01   -3.3783334901E+01   -3.3446911454E+01
-3.3115491184E+01   -3.2789142483E+01   -3.2467920263E+01   -3.2151865856E+01
-3.1841006955E+01   -3.1535357562E+01   -3.1234917971E+01   -3.0939674766E+01
-3.0649600836E+01   -3.0364655411E+01   -3.0084784102E+01   -2.9809918955E+01
-2.9539978502E+01   -2.9274867798E+01   -2.9014478713E+01   -2.8758689025E+01
-2.8507365294E+01   -2.8260370962E+01   -2.8017574005E+01   -2.7778848087E+01
-2.7544071948E+01   -2.7313130512E+01   -2.7085910614E+01   -2.6862303664E+01
-2.6642220542E+01   -2.6425668048E+01   -2.6212608969E+01   -2.6002905268E+01
-2.5796391097E+01   -2.5592967945E+01   -2.5392592221E+01   -2.5195149769E+01
-2.5000562319E+01   -2.4808795423E+01   -2.4619814440E+01   -2.4433564053E+01
-2.4249968883E+01   -2.4068972470E+01   -2.3890521937E+01   -2.3714562396E+01
-2.3541041447E+01   -2.3369908310E+01   -2.3201113510E+01   -2.3034608902E+01
-2.2870347618E+01   -2.2708284029E+01   -2.2548373737E+01   -2.2390573566E+01
-2.2234841573E+01   -2.2081137056E+01   -2.1929420571E+01   -2.1779653945E+01
-2.1631800319E+01   -2.1485824021E+01   -2.1341689716E+01   -2.1199366810E+01
-2.1058825494E+01   -2.0920024622E+01   -2.0782937844E+01   -2.0647512284E+01
-2.0513810685E+01   -2.0382175827E+01   -2.0252788123E+01   -2.0125457470E+01
-1.9999895794E+01   -1.9875812925E+01   -1.9753109798E+01   -1.9631901320E+01
-1.9512218838E+01   -1.9393992404E+01   -1.9277183051E+01   -1.9161772908E+01
-1.9047737387E+01   -1.8935050602E+01   -1.8823688113E+01   -1.8713626174E+01
-1.8604841629E+01   -1.8497311934E+01   -1.8391015152E+01   -1.8285929940E+01
-1.8182035536E+01   -1.8079311747E+01   -1.7977738931E+01   -1.7877297973E+01
-1.7777970269E+01   -1.7679737703E+01   -1.7582582616E+01   -1.7486487789E+01
-1.7391436409E+01   -1.7297412049E+01   -1.7204398638E+01   -1.7112380440E+01
-1.7021342028E+01   -1.6931268261E+01   -1.6842144270E+01   -1.6753955436E+01
-1.6666687377E+01   -1.6580325939E+01   -1.6494857183E+01   -1.6410267383E+01
-1.6326543019E+01   -1.6243670779E+01   -1.6161637558E+01   -1.6080430463E+01
-1.6000036813E+01   -1.5920444148E+01   -1.5841640234E+01   -1.5763613067E+01
-1.5686350883E+01   -1.5609842158E+01   -1.5534075591E+01   -1.5459040173E+01
-1.5384725110E+01   -1.5311119748E+01   -1.5238213905E+01   -1.5165998201E+01
-1.5094463686E+01   -1.5023596967E+01   -1.4953384680E+01   -1.4883817177E+01
-1.4814893250E+01   -1.4746612141E+01   -1.4678964730E+01   -1.4611938571E+01
-1.4545520813E+01   -1.4479703724E+01   -1.4414479421E+01   -1.4349840125E+01
-1.4285777870E+01   -1.4222285087E+01   -1.4159354231E+01   -1.4096977852E+01
-1.4035148607E+01   -1.3973859351E+01   -1.3913103043E+01   -1.3852872763E+01
-1.3793161707E+01   -1.3733963190E+01   -1.3675270643E+01   -1.3617077605E+01
-1.3559377726E+01   -1.3502164766E+01   -1.3445432585E+01   -1.3389175150E+01
-1.3333386526E+01   -1.3278060877E+01   -1.3223192464E+01   -1.3168775643E+01
-1.3114804861E+01   -1.3061274657E+01   -1.3008179657E+01   -1.2955514576E+01
-1.2903274214E+01   -1.2851453454E+01   -1.2800047259E+01   -1.2749050677E+01
-1.2698458829E+01   -1.2648266918E+01   -1.2598470219E+01   -1.2549064084E+01
-1.2500043934E+01   -1.2451405266E+01   -1.2403143642E+01   -1.2355254696E+01
-1.2307734127E+01   -1.2260577702E+01   -1.2213781251E+01   -1.2167340668E+01
-1.2121251908E+01   -1.2075510990E+01   -1.2030113989E+01   -1.1985057043E+01
-1.1940336343E+01   -1.1895948142E+01   -1.1851888743E+01   -1.1808154507E+01
-1.1764741848E+01   -1.1721647232E+01   -1.1678867177E+01   -1.1636398252E+01
-1.1594237074E+01   -1.1552380310E+01   -1.1510824676E+01   -1.1469566933E+01
-1.1428603890E+01   -1.1387932401E+01   -1.1347549364E+01   -1.1307451721E+01
-1.1267636457E+01   -1.1228100601E+01   -1.1188841221E+01   -1.1149855427E+01
-1.1111140369E+01   -1.1072693238E+01   -1.1034511261E+01   -1.0996591704E+01
-1.0958931873E+01   -1.0921529107E+01   -1.0884380783E+01   -1.0847484314E+01
-1.0810837147E+01   -1.0774436764E+01   -1.0738280681E+01   -1.0702366447E+01
-1.0666691642E+01   -1.0631253880E+01   -1.0596050808E+01   -1.0561080101E+01
-1.0526339466E+01   -1.0491826640E+01   -1.0457539390E+01   -1.0423475511E+01
-1.0389632828E+01   -1.0356009193E+01   -1.0322602486E+01   -1.0289410615E+01
-1.0256431514E+01   -1.0223663144E+01   -1.0191103491E+01   -1.0158750568E+01
-1.0126602412E+01   -1.0094657085E+01   -1.0062912673E+01   -1.0031367287E+01
-1.0000019062E+01   -9.9688661544E+00   -9.9379067446E+00   -9.9071390355E+00
-9.8765612520E+00   -9.8461716411E+00   -9.8159684710E+00   -9.7859500313E+00
-9.7561146324E+00   -9.7264606052E+00   -9.6969863008E+00   -9.6676900904E+00
-9.6385703647E+00   -9.6096255338E+00   -9.5808540266E+00   -9.5522542911E+00
-9.5238247936E+00   -9.4955640185E+00   -9.4674704685E+00   -9.4395426635E+00
-9.4117791411E+00   -9.3841784561E+00   -9.3567391800E+00   -9.3294599011E+00
-9.3023392241E+00   -9.2753757698E+00   -9.2485681750E+00   -9.2219150922E+00
-9.1954151894E+00   -9.1690671499E+00   -9.1428696719E+00   -9.1168214687E+00
-9.0909212681E+00   -9.0651678121E+00   -9.0395598572E+00   -9.0140961738E+00
-8.9887755461E+00   -8.9635967720E+00   -8.9385586628E+00   -8.9136600429E+00
-8.8888997501E+00   -8.8642766346E+00   -8.8397895598E+00   -8.8154374012E+00
-8.7912190470E+00   -8.7671333974E+00   -8.7431793647E+00   -8.7193558728E+00
-8.6956618578E+00   -8.6720962668E+00   -8.6486580586E+00   -8.6253462032E+00
-8.6021596816E+00   -8.5790974857E+00   -8.5561586183E+00   -8.5333420927E+00
-8.5106469328E+00   -8.4880721729E+00   -8.4656168573E+00   -8.4432800406E+00
-8.4210607872E+00   -8.3989581716E+00   -8.3769712776E+00   -8.3550991988E+00
-8.3333410382E+00   -8.3116959082E+00   -8.2901629303E+00   -8.2687412350E+00
-8.2474299619E+00   -8.2262282595E+00   -8.2051352849E+00   -8.1841502038E+00
-8.1632721905E+00   -8.1425004278E+00   -8.1218341065E+00   -8.1012724259E+00
-8.0808145933E+00   -8.0604598238E+00   -8.0402073406E+00   -8.0200563747E+00
-8.0000061646E+00   -7.9800559565E+00   -7.9602050043E+00   -7.9404525689E+00
-7.9207979188E+00   -7.9012403297E+00   -7.8817790844E+00   -7.8624134727E+00
-7.8431427915E+00   -7.8239663443E+00   -7.8048834417E+00   -7.7858934008E+00
-7.7669955456E+00   -7.7481892062E+00   -7.7294737197E+00   -7.7108484291E+00
-7.6923126841E+00   -7.6738658404E+00   -7.6555072600E+00   -7.6372363108E+00
-7.6190523670E+00   -7.6009548086E+00   -7.5829430214E+00   -7.5650163971E+00
-7.5471743331E+00   -7.5294162326E+00   -7.5117415042E+00   -7.4941495622E+00
-7.4766398262E+00   -7.4592117215E+00   -7.4418646784E+00   -7.4245981328E+00
-7.4074115256E+00   -7.3903043030E+00   -7.3732759161E+00   -7.3563258214E+00
-7.3394534801E+00   -7.3226583584E+00   -7.3059399273E+00   -7.2892976629E+00
-7.2727310457E+00   -7.2562395612E+00   -7.2398226994E+00   -7.2234799550E+00
-7.2072108270E+00   -7.1910148193E+00   -7.1748914401E+00   -7.1588402017E+00
-7.1428606212E+00   -7.1269522197E+00   -7.1111145228E+00   -7.0953470601E+00
-7.0796493653E+00   -7.0640209766E+00   -7.0484614358E+00   -7.0329702891E+00
-7.0175470864E+00   -7.0021913818E+00   -6.9869027331E+00   -6.9716807020E+00
-6.9565248541E+00   -6.9414347586E+00   -6.9264099885E+00   -6.9114501207E+00
-6.8965547354E+00   -6.8817234166E+00   -6.8669557519E+00   -6.8522513324E+00
-6.8376097526E+00   -6.8230306105E+00   -6.8085135076E+00   -6.7940580488E+00
-6.7796638422E+00   -6.7653304993E+00   -6.7510576350E+00   -6.7368448671E+00
-6.7226918170E+00   -6.7085981091E+00   -6.6945633709E+00   -6.6805872331E+00
-6.6666693294E+00   -6.6528092966E+00   -6.6390067745E+00   -6.6252614059E+00
-6.6115728365E+00   -6.5979407150E+00   -6.5843646929E+00   -6.5708444246E+00
-6.5573795675E+00   -6.5439697814E+00   -6.5306147293E+00   -6.5173140767E+00
-6.5040674920E+00   -6.4908746460E+00   -6.4777352124E+00   -6.4646488676E+00
-6.4516152904E+00   -6.4386341622E+00   -6.4257051672E+00   -6.4128279918E+00
-6.4000023252E+00   -6.3872278589E+00   -6.3745042870E+00   -6.3618313058E+00
-6.3492086143E+00   -6.3366359137E+00   -6.3241129075E+00   -6.3116393018E+00
-6.2992148048E+00   -6.2868391270E+00   -6.2745119813E+00   -6.2622330828E+00
-6.2500021486E+00   -6.2378188985E+00   -6.2256830539E+00   -6.2135943388E+00
-6.2015524792E+00   -6.1895572031E+00   -6.1776082408E+00   -6.1657053246E+00
-6.1538481888E+00   -6.1420365697E+00   -6.1302702059E+00   -6.1185488376E+00
-6.1068722074E+00   -6.0952400594E+00   -6.0836521402E+00   -6.0721081977E+00
-6.0606079823E+00   -6.0491512458E+00   -6.0377377423E+00   -6.0263672273E+00
-6.0150394586E+00   -6.0037541955E+00   -5.9925111992E+00   -5.9813102328E+00
-5.9701510609E+00   -5.9590334500E+00   -5.9479571685E+00   -5.9369219862E+00
-5.9259276749E+00   -5.9149740079E+00   -5.9040607602E+00   -5.8931877086E+00
-5.8823546313E+00   -5.8715613083E+00   -5.8608075212E+00   -5.8500930531E+00
-5.8394176889E+00   -5.8287812147E+00   -5.8181834185E+00   -5.8076240897E+00
-5.7971030192E+00   -5.7866199995E+00   -5.7761748246E+00   -5.7657672897E+00
-5.7553971920E+00   -5.7450643297E+00   -5.7347685026E+00   -5.7245095120E+00
-5.7142871606E+00   -5.7041012523E+00   -5.6939515927E+00   -5.6838379887E+00
-5.6737602484E+00   -5.6637181813E+00   -5.6537115986E+00   -5.6437403123E+00
-5.6338041360E+00   -5.6239028847E+00   -5.6140363745E+00   -5.6042044230E+00
-5.5944068487E+00   -5.5846434719E+00   -5.5749141136E+00   -5.5652185965E+00
-5.5555567444E+00   -5.5459283820E+00   -5.5363333357E+00   -5.5267714328E+00
-5.5172425019E+00   -5.5077463728E+00   -5.4982828762E+00   -5.4888518445E+00
-5.4794531107E+00   -5.4700865092E+00   -5.4607518755E+00   -5.4514490464E+00
-5.4421778594E+00   -5.4329381534E+00   -5.4237297684E+00   -5.4145525454E+00
-5.4054063264E+00   -5.3962909546E+00   -5.3872062743E+00   -5.3781521306E+00
-5.3691283699E+00   -5.3601348394E+00   -5.3511713876E+00   -5.3422378638E+00
</PP_LOCAL>
<PP_NONLOCAL>
<PP_BETA.1
type="real"
size="600"
columns="4"
index="1"
angular_momentum="0"
cutoff_radius_index=" 160"
cutoff_radius="    1.5900000000E+00" >
6.0396132540E-13    9.5003991481E-02    1.8971990862E-01    2.8386067209E-01
3.7714118962E-01    4.6927934190E-01    5.5999695950E-01    6.4902078762E-01
7.3608343579E-01    8.2092430930E-01    9.0329051957E-01    9.8293777026E-01
1.0596312161E+00    1.1331462919E+00    1.2032695076E+00    1.2697992082E+00
1.3325462939E+00    1.3913348990E+00    1.4460030255E+00    1.4964031302E+00
1.5424026609E+00    1.5838845414E+00    1.6207476002E+00    1.6529069439E+00
1.6802942696E+00    1.7028581179E+00    1.7205640627E+00    1.7333948361E+00
1.7413503893E+00    1.7444478858E+00    1.7427216284E+00    1.7362229177E+00
1.7250198440E+00    1.7091970106E+00    1.6888551906E+00    1.6641109167E+00
1.6350960067E+00    1.6019570240E+00    1.5648546770E+00    1.5239631581E+00
1.4794694251E+00    1.4315724281E+00    1.3804822838E+00    1.3264194026E+00
1.2696135696E+00    1.2103029850E+00    1.1487332681E+00    1.0851564278E+00
1.0198298058E+00    9.5301499618E-01    8.8497674623E-01    8.1598184405E-01
7.4629799753E-01    6.7619270991E-01    6.0593215719E-01    5.3578007235E-01
4.6599664173E-01    3.9683741849E-01    3.2855225821E-01    2.6138428147E-01
1.9556886826E-01    1.3133268869E-01    6.8892774535E-02    8.4556357041E-03
-4.9783574278E-02   -1.0564184010E-01   -1.5894901027E-01   -2.0954846335E-01
-2.5729771179E-01   -3.0206894087E-01   -3.4374948022E-01   -3.8224220605E-01
-4.1746587240E-01   -4.4935536979E-01   -4.7786191046E-01   -5.0295313921E-01
-5.2461316954E-01   -5.4284254484E-01   -5.5765812477E-01   -5.6909289740E-01
-5.7719571766E-01   -5.8203097325E-01   -5.8367817926E-01   -5.8223150293E-01
-5.7779922051E-01   -5.7050310805E-01   -5.6047776850E-01   -5.4786989751E-01
-5.3283749052E-01   -5.1554899404E-01   -4.9618240412E-01   -4.7492431501E-01
-4.5196892148E-01   -4.2751697805E-01   -4.0177471869E-01   -3.7495274061E-01
-3.4726485571E-01   -3.1892691352E-01   -2.9015559930E-01   -2.6116721114E-01
-2.3217641973E-01   -2.0339501473E-01   -1.7503064120E-01   -1.4728553006E-01
-1.2035522582E-01   -9.4427315392E-02   -6.9680161034E-02   -4.6281640835E-02
-2.4387898200E-02   -4.1420976757E-03    1.4326664595E-02    3.0905045471E-02
4.5495184825E-02    5.8011606824E-02    6.8377714787E-02    7.6525271254E-02
8.2394750865E-02    8.5935277039E-02    8.7104641629E-02    8.5869308984E-02
8.2204402484E-02    7.6093676235E-02    6.7528372380E-02    5.6449579734E-02
4.3546555693E-02    2.6924862833E-02    6.5132934595E-03   -2.3775254788E-03
7.1478570757E-05    4.6538599958E-04   -6.8392974274E-05   -6.2656360601E-06
-3.9387701480E-07    0.0000000000E+00    0.0000000000E+00    0.0000000000E+00
0.0000000000E+00    0.0000000000E+00    0.0000000000E+00    0.0000000000E+00
0.0000000000E+00    0.0000000000E+00    0.0000000000E+00    0.0000000000E+00
0.0000000000E+00    0.0000000000E+00    0.0000000000E+00    0.0000000000E+00
0.0000000000E+00    0.0000000000E+00    0.0000000000E+00    0.0000000000E+00
0.0000000000E+00    0.0000000000E+00    0.0000000000E+00    0.0000000000E+00
0.0000000000E+00    0.0000000000E+00    0.0000000000E+00    0.0000000000E+00
0. 0. 0. 0.
0. 0. 0. 0.
0. 0. 0. 0.
0. 0. 0. 0.
0. 0. 0. 0.
0. 0. 0. 0.
0. 0. 0. 0.
0. 0. 0. 0.
0. 0. 0. 0.
0. 0. 0. 0.
0. 0. 0. 0.
0. 0. 0. 0.
0. 0. 0. 0.
0. 0. 0. 0.
0. 0. 0. 0.
0. 0. 0. 0.
0. 0. 0. 0.
0. 0. 0. 0.
0. 0. 0. 0.
0. 0. 0. 0.
0. 0. 0. 0.
0. 0. 0. 0.
0. 0. 0. 0.
0. 0. 0. 0.
0. 0. 0. 0.
0. 0. 0. 0.
0. 0. 0. 0.
0. 0. 0. 0.
0. 0. 0. 0.
0. 0. 0. 0.
0. 0. 0. 0.
0. 0. 0. 0.
0. 0. 0. 0.
0. 0. 0. 0.
0. 0. 0. 0.
0. 0. 0. 0.
0. 0. 0. 0.
0. 0. 0. 0.
0. 0. 0. 0.
0. 0. 0. 0.
0. 0. 0. 0.
0. 0. 0. 0.
0. 0. 0. 0.
0. 0. 0. 0.
0. 0. 0. 0.
0. 0. 0. 0.
0. 0. 0. 0.
0. 0. 0. 0.
0. 0. 0. 0.
0. 0. 0. 0.
0. 0. 0. 0.
0. 0. 0. 0.
0. 0. 0. 0.
0. 0. 0. 0.
0. 0. 0. 0.
0. 0. 0. 0.
0. 0. 0. 0.
0. 0. 0. 0.
0. 0. 0. 0.
0. 0. 0. 0.
0. 0. 0. 0.
0. 0. 0. 0.
0. 0. 0. 0.
0. 0. 0. 0.
0. 0. 0. 0.
0. 0. 0. 0.
0. 0. 0. 0.
0. 0. 0. 0.
0. 0. 0. 0.
0. 0. 0. 0.
0. 0. 0. 0.
0. 0. 0. 0.
0. 0. 0. 0.
0. 0. 0. 0.
0. 0. 0. 0.
0. 0. 0. 0.
0. 0. 0. 0.
0. 0. 0. 0.
0. 0. 0. 0.
0. 0. 0. 0.
0. 0. 0. 0.
0. 0. 0. 0.
0. 0. 0. 0.
0. 0. 0. 0.
0. 0. 0. 0.
0. 0. 0. 0.
0. 0. 0. 0.
0. 0. 0. 0.
0. 0. 0. 0.
0. 0. 0. 0.