<UPF version="2.0.1">
<PP_INFO>
NOTE!!!!
This file is trimmed with a mesh size of 600 from the original version.
Trimming performed at 2023-03-31 09:10:05.154833 by trim_upf.py version 0.1.0

This pseudopotential file has been produced using the code
ONCVPSP  (Optimized Norm-Conservinng Vanderbilt PSeudopotential)
scalar-relativistic version 3.3.0 08/16/2017 by D. R. Hamann
The code is available through a link at URL www.mat-simresearch.com.
Documentation with the package provides a full discription of the
input data below.
While it is not required under the terms of the GNU GPL, it is
suggested that you cite D. R. Hamann, Phys. Rev. B 88, 085117 (2013)
in any publication using these pseudopotentials.
<PP_INPUTFILE>
# ATOM AND REFERENCE CONFIGURATION
# atsym  z   nc   nv     iexc    psfile
Ga 31.00    5    3       4      upf
#
#   n    l    f        energy (Ha)
1    0    2.00
2    0    2.00
2    1    6.00
3    0    2.00
3    1    6.00
3    2   10.00
4    0    2.00
4    1    1.00
#
# PSEUDOPOTENTIAL AND OPTIMIZATION
# lmax
2
#
#   l,   rc,      ep,       ncon, nbas, qcut
0   1.65000  -0.32886    4    8   4.40000
1   1.75000  -0.09478    4    8   5.80000
2   1.90000  -0.70391    4    9   9.00000
#
# LOCAL POTENTIAL
# lloc, lpopt,  rc(5),   dvloc0
4    5   1.60000      0.00000
#
# VANDERBILT-KLEINMAN-BYLANDER PROJECTORs
# l, nproj, debl
0    2   3.00000
1    2   3.00000
2    2   2.00000
#
# MODEL CORE CHARGE
# icmod, fcfact, rcfact
3   5.00000   1.40000
#
# LOG DERIVATIVE ANALYSIS
# epsh1, epsh2, depsh
-12.00   12.00    0.02
#
# OUTPUT GRID
# rlmax, drl
6.00    0.01
#
# TEST CONFIGURATIONS
# ncnf
0
# nvcnf
#   n    l    f
</PP_INPUTFILE>
</PP_INFO>
<!--                               -->
<!-- END OF HUMAN READABLE SECTION -->
<!--                               -->
<PP_HEADER
generated="Generated using ONCVPSP code by D. R. Hamann"
author="anonymous"
date="171031"
comment=""
element="Ga"
pseudo_type="NC"
relativistic="scalar"
is_ultrasoft="F"
is_paw="F"
is_coulomb="F"
has_so="F"
has_wfc="F"
has_gipaw="F"
core_correction="T"
functional="PBE"
z_valence="   13.00"
total_psenergy="  -1.34029338213E+02"
rho_cutoff="   1.90100000000E+01"
l_max="2"
l_local="-1"
mesh_size="   600"
number_of_wfc="3"
number_of_proj="6"/>
<PP_MESH>
<PP_R type="real"  size="600" columns="8">
0.0000    0.0100    0.0200    0.0300    0.0400    0.0500    0.0600    0.0700
0.0800    0.0900    0.1000    0.1100    0.1200    0.1300    0.1400    0.1500
0.1600    0.1700    0.1800    0.1900    0.2000    0.2100    0.2200    0.2300
0.2400    0.2500    0.2600    0.2700    0.2800    0.2900    0.3000    0.3100
0.3200    0.3300    0.3400    0.3500    0.3600    0.3700    0.3800    0.3900
0.4000    0.4100    0.4200    0.4300    0.4400    0.4500    0.4600    0.4700
0.4800    0.4900    0.5000    0.5100    0.5200    0.5300    0.5400    0.5500
0.5600    0.5700    0.5800    0.5900    0.6000    0.6100    0.6200    0.6300
0.6400    0.6500    0.6600    0.6700    0.6800    0.6900    0.7000    0.7100
0.7200    0.7300    0.7400    0.7500    0.7600    0.7700    0.7800    0.7900
0.8000    0.8100    0.8200    0.8300    0.8400    0.8500    0.8600    0.8700
0.8800    0.8900    0.9000    0.9100    0.9200    0.9300    0.9400    0.9500
0.9600    0.9700    0.9800    0.9900    1.0000    1.0100    1.0200    1.0300
1.0400    1.0500    1.0600    1.0700    1.0800    1.0900    1.1000    1.1100
1.1200    1.1300    1.1400    1.1500    1.1600    1.1700    1.1800    1.1900
1.2000    1.2100    1.2200    1.2300    1.2400    1.2500    1.2600    1.2700
1.2800    1.2900    1.3000    1.3100    1.3200    1.3300    1.3400    1.3500
1.3600    1.3700    1.3800    1.3900    1.4000    1.4100    1.4200    1.4300
1.4400    1.4500    1.4600    1.4700    1.4800    1.4900    1.5000    1.5100
1.5200    1.5300    1.5400    1.5500    1.5600    1.5700    1.5800    1.5900
1.6000    1.6100    1.6200    1.6300    1.6400    1.6500    1.6600    1.6700
1.6800    1.6900    1.7000    1.7100    1.7200    1.7300    1.7400    1.7500
1.7600    1.7700    1.7800    1.7900    1.8000    1.8100    1.8200    1.8300
1.8400    1.8500    1.8600    1.8700    1.8800    1.8900    1.9000    1.9100
1.9200    1.9300    1.9400    1.9500    1.9600    1.9700    1.9800    1.9900
2.0000    2.0100    2.0200    2.0300    2.0400    2.0500    2.0600    2.0700
2.0800    2.0900    2.1000    2.1100    2.1200    2.1300    2.1400    2.1500
2.1600    2.1700    2.1800    2.1900    2.2000    2.2100    2.2200    2.2300
2.2400    2.2500    2.2600    2.2700    2.2800    2.2900    2.3000    2.3100
2.3200    2.3300    2.3400    2.3500    2.3600    2.3700    2.3800    2.3900
2.4000    2.4100    2.4200    2.4300    2.4400    2.4500    2.4600    2.4700
2.4800    2.4900    2.5000    2.5100    2.5200    2.5300    2.5400    2.5500
2.5600    2.5700    2.5800    2.5900    2.6000    2.6100    2.6200    2.6300
2.6400    2.6500    2.6600    2.6700    2.6800    2.6900    2.7000    2.7100
2.7200    2.7300    2.7400    2.7500    2.7600    2.7700    2.7800    2.7900
2.8000    2.8100    2.8200    2.8300    2.8400    2.8500    2.8600    2.8700
2.8800    2.8900    2.9000    2.9100    2.9200    2.9300    2.9400    2.9500
2.9600    2.9700    2.9800    2.9900    3.0000    3.0100    3.0200    3.0300
3.0400    3.0500    3.0600    3.0700    3.0800    3.0900    3.1000    3.1100
3.1200    3.1300    3.1400    3.1500    3.1600    3.1700    3.1800    3.1900
3.2000    3.2100    3.2200    3.2300    3.2400    3.2500    3.2600    3.2700
3.2800    3.2900    3.3000    3.3100    3.3200    3.3300    3.3400    3.3500
3.3600    3.3700    3.3800    3.3900    3.4000    3.4100    3.4200    3.4300
3.4400    3.4500    3.4600    3.4700    3.4800    3.4900    3.5000    3.5100
3.5200    3.5300    3.5400    3.5500    3.5600    3.5700    3.5800    3.5900
3.6000    3.6100    3.6200    3.6300    3.6400    3.6500    3.6600    3.6700
3.6800    3.6900    3.7000    3.7100    3.7200    3.7300    3.7400    3.7500
3.7600    3.7700    3.7800    3.7900    3.8000    3.8100    3.8200    3.8300
3.8400    3.8500    3.8600    3.8700    3.8800    3.8900    3.9000    3.9100
3.9200    3.9300    3.9400    3.9500    3.9600    3.9700    3.9800    3.9900
4.0000    4.0100    4.0200    4.0300    4.0400    4.0500    4.0600    4.0700
4.0800    4.0900    4.1000    4.1100    4.1200    4.1300    4.1400    4.1500
4.1600    4.1700    4.1800    4.1900    4.2000    4.2100    4.2200    4.2300
4.2400    4.2500    4.2600    4.2700    4.2800    4.2900    4.3000    4.3100
4.3200    4.3300    4.3400    4.3500    4.3600    4.3700    4.3800    4.3900
4.4000    4.4100    4.4200    4.4300    4.4400    4.4500    4.4600    4.4700
4.4800    4.4900    4.5000    4.5100    4.5200    4.5300    4.5400    4.5500
4.5600    4.5700    4.5800    4.5900    4.6000    4.6100    4.6200    4.6300
4.6400    4.6500    4.6600    4.6700    4.6800    4.6900    4.7000    4.7100
4.7200    4.7300    4.7400    4.7500    4.7600    4.7700    4.7800    4.7900
4.8000    4.8100    4.8200    4.8300    4.8400    4.8500    4.8600    4.8700
4.8800    4.8900    4.9000    4.9100    4.9200    4.9300    4.9400    4.9500
4.9600    4.9700    4.9800    4.9900    5.0000    5.0100    5.0200    5.0300
5.0400    5.0500    5.0600    5.0700    5.0800    5.0900    5.1000    5.1100
5.1200    5.1300    5.1400    5.1500    5.1600    5.1700    5.1800    5.1900
5.2000    5.2100    5.2200    5.2300    5.2400    5.2500    5.2600    5.2700
5.2800    5.2900    5.3000    5.3100    5.3200    5.3300    5.3400    5.3500
5.3600    5.3700    5.3800    5.3900    5.4000    5.4100    5.4200    5.4300
5.4400    5.4500    5.4600    5.4700    5.4800    5.4900    5.5000    5.5100
5.5200    5.5300    5.5400    5.5500    5.5600    5.5700    5.5800    5.5900
5.6000    5.6100    5.6200    5.6300    5.6400    5.6500    5.6600    5.6700
5.6800    5.6900    5.7000    5.7100    5.7200    5.7300    5.7400    5.7500
5.7600    5.7700    5.7800    5.7900    5.8000    5.8100    5.8200    5.8300
5.8400    5.8500    5.8600    5.8700    5.8800    5.8900    5.9000    5.9100
5.9200    5.9300    5.9400    5.9500    5.9600    5.9700    5.9800    5.9900
</PP_R>
<PP_RAB type="real"  size="600" columns="8">
0.0100    0.0100    0.0100    0.0100    0.0100    0.0100    0.0100    0.0100
0.0100    0.0100    0.0100    0.0100    0.0100    0.0100    0.0100    0.0100
0.0100    0.0100    0.0100    0.0100    0.0100    0.0100    0.0100    0.0100
0.0100    0.0100    0.0100    0.0100    0.0100    0.0100    0.0100    0.0100
0.0100    0.0100    0.0100    0.0100    0.0100    0.0100    0.0100    0.0100
0.0100    0.0100    0.0100    0.0100    0.0100    0.0100    0.0100    0.0100
0.0100    0.0100    0.0100    0.0100    0.0100    0.0100    0.0100    0.0100
0.0100    0.0100    0.0100    0.0100    0.0100    0.0100    0.0100    0.0100
0.0100    0.0100    0.0100    0.0100    0.0100    0.0100    0.0100    0.0100
0.0100    0.0100    0.0100    0.0100    0.0100    0.0100    0.0100    0.0100
0.0100    0.0100    0.0100    0.0100    0.0100    0.0100    0.0100    0.0100
0.0100    0.0100    0.0100    0.0100    0.0100    0.0100    0.0100    0.0100
0.0100    0.0100    0.0100    0.0100    0.0100    0.0100    0.0100    0.0100
0.0100    0.0100    0.0100    0.0100    0.0100    0.0100    0.0100    0.0100
0.0100    0.0100    0.0100    0.0100    0.0100    0.0100    0.0100    0.0100
0.0100    0.0100    0.0100    0.0100    0.0100    0.0100    0.0100    0.0100
0.0100    0.0100    0.0100    0.0100    0.0100    0.0100    0.0100    0.0100
0.0100    0.0100    0.0100    0.0100    0.0100    0.0100    0.0100    0.0100
0.0100    0.0100    0.0100    0.0100    0.0100    0.0100    0.0100    0.0100
0.0100    0.0100    0.0100    0.0100    0.0100    0.0100    0.0100    0.0100
0.0100    0.0100    0.0100    0.0100    0.0100    0.0100    0.0100    0.0100
0.0100    0.0100    0.0100    0.0100    0.0100    0.0100    0.0100    0.0100
0.0100    0.0100    0.0100    0.0100    0.0100    0.0100    0.0100    0.0100
0.0100    0.0100    0.0100    0.0100    0.0100    0.0100    0.0100    0.0100
0.0100    0.0100    0.0100    0.0100    0.0100    0.0100    0.0100    0.0100
0.0100    0.0100    0.0100    0.0100    0.0100    0.0100    0.0100    0.0100
0.0100    0.0100    0.0100    0.0100    0.0100    0.0100    0.0100    0.0100
0.0100    0.0100    0.0100    0.0100    0.0100    0.0100    0.0100    0.0100
0.0100    0.0100    0.0100    0.0100    0.0100    0.0100    0.0100    0.0100
0.0100    0.0100    0.0100    0.0100    0.0100    0.0100    0.0100    0.0100
0.0100    0.0100    0.0100    0.0100    0.0100    0.0100    0.0100    0.0100
0.0100    0.0100    0.0100    0.0100    0.0100    0.0100    0.0100    0.0100
0.0100    0.0100    0.0100    0.0100    0.0100    0.0100    0.0100    0.0100
0.0100    0.0100    0.0100    0.0100    0.0100    0.0100    0.0100    0.0100
0.0100    0.0100    0.0100    0.0100    0.0100    0.0100    0.0100    0.0100
0.0100    0.0100    0.0100    0.0100    0.0100    0.0100    0.0100    0.0100
0.0100    0.0100    0.0100    0.0100    0.0100    0.0100    0.0100    0.0100
0.0100    0.0100    0.0100    0.0100    0.0100    0.0100    0.0100    0.0100
0.0100    0.0100    0.0100    0.0100    0.0100    0.0100    0.0100    0.0100
0.0100    0.0100    0.0100    0.0100    0.0100    0.0100    0.0100    0.0100
0.0100    0.0100    0.0100    0.0100    0.0100    0.0100    0.0100    0.0100
0.0100    0.0100    0.0100    0.0100    0.0100    0.0100    0.0100    0.0100
0.0100    0.0100    0.0100    0.0100    0.0100    0.0100    0.0100    0.0100
0.0100    0.0100    0.0100    0.0100    0.0100    0.0100    0.0100    0.0100
0.0100    0.0100    0.0100    0.0100    0.0100    0.0100    0.0100    0.0100
0.0100    0.0100    0.0100    0.0100    0.0100    0.0100    0.0100    0.0100
0.0100    0.0100    0.0100    0.0100    0.0100    0.0100    0.0100    0.0100
0.0100    0.0100    0.0100    0.0100    0.0100    0.0100    0.0100    0.0100
0.0100    0.0100    0.0100    0.0100    0.0100    0.0100    0.0100    0.0100
0.0100    0.0100    0.0100    0.0100    0.0100    0.0100    0.0100    0.0100
0.0100    0.0100    0.0100    0.0100    0.0100    0.0100    0.0100    0.0100
0.0100    0.0100    0.0100    0.0100    0.0100    0.0100    0.0100    0.0100
0.0100    0.0100    0.0100    0.0100    0.0100    0.0100    0.0100    0.0100
0.0100    0.0100    0.0100    0.0100    0.0100    0.0100    0.0100    0.0100
0.0100    0.0100    0.0100    0.0100    0.0100    0.0100    0.0100    0.0100
0.0100    0.0100    0.0100    0.0100    0.0100    0.0100    0.0100    0.0100
0.0100    0.0100    0.0100    0.0100    0.0100    0.0100    0.0100    0.0100
0.0100    0.0100    0.0100    0.0100    0.0100    0.0100    0.0100    0.0100
0.0100    0.0100    0.0100    0.0100    0.0100    0.0100    0.0100    0.0100
0.0100    0.0100    0.0100    0.0100    0.0100    0.0100    0.0100    0.0100
0.0100    0.0100    0.0100    0.0100    0.0100    0.0100    0.0100    0.0100
0.0100    0.0100    0.0100    0.0100    0.0100    0.0100    0.0100    0.0100
0.0100    0.0100    0.0100    0.0100    0.0100    0.0100    0.0100    0.0100
0.0100    0.0100    0.0100    0.0100    0.0100    0.0100    0.0100    0.0100
0.0100    0.0100    0.0100    0.0100    0.0100    0.0100    0.0100    0.0100
0.0100    0.0100    0.0100    0.0100    0.0100    0.0100    0.0100    0.0100
0.0100    0.0100    0.0100    0.0100    0.0100    0.0100    0.0100    0.0100
0.0100    0.0100    0.0100    0.0100    0.0100    0.0100    0.0100    0.0100
0.0100    0.0100    0.0100    0.0100    0.0100    0.0100    0.0100    0.0100
0.0100    0.0100    0.0100    0.0100    0.0100    0.0100    0.0100    0.0100
0.0100    0.0100    0.0100    0.0100    0.0100    0.0100    0.0100    0.0100
0.0100    0.0100    0.0100    0.0100    0.0100    0.0100    0.0100    0.0100
0.0100    0.0100    0.0100    0.0100    0.0100    0.0100    0.0100    0.0100
0.0100    0.0100    0.0100    0.0100    0.0100    0.0100    0.0100    0.0100
0.0100    0.0100    0.0100    0.0100    0.0100    0.0100    0.0100    0.0100
</PP_RAB>
</PP_MESH>
<PP_LOCAL type="real"  size="600" columns="4">
-3.2071220852E+01   -3.2070936290E+01   -3.2070082909E+01   -3.2068661632E+01
-3.2066673851E+01   -3.2064121226E+01   -3.2061005409E+01   -3.2057327701E+01
-3.2053088660E+01   -3.2048287675E+01   -3.2042922497E+01   -3.2036988777E+01
-3.2030479588E+01   -3.2023384969E+01   -3.2015691490E+01   -3.2007381855E+01
-3.1998434543E+01   -3.1988823510E+01   -3.1978517942E+01   -3.1967482074E+01
-3.1955675071E+01   -3.1943050986E+01   -3.1929558771E+01   -3.1915142375E+01
-3.1899740888E+01   -3.1883288766E+01   -3.1865716106E+01   -3.1846948977E+01
-3.1826909808E+01   -3.1805517810E+01   -3.1782689445E+01   -3.1758338920E+01
-3.1732378701E+01   -3.1704720044E+01   -3.1675273530E+01   -3.1643949593E+01
-3.1610659038E+01   -3.1575313544E+01   -3.1537826133E+01   -3.1498111611E+01
-3.1456086980E+01   -3.1411671802E+01   -3.1364788534E+01   -3.1315362824E+01
-3.1263323773E+01   -3.1208604167E+01   -3.1151140688E+01   -3.1090874103E+01
-3.1027749445E+01   -3.0961716187E+01   -3.0892728416E+01   -3.0820745017E+01
-3.0745729860E+01   -3.0667652010E+01   -3.0586485946E+01   -3.0502211797E+01
-3.0414815590E+01   -3.0324289511E+01   -3.0230632167E+01   -3.0133848850E+01
-3.0033951787E+01   -2.9930960372E+01   -2.9824901363E+01   -2.9715809047E+01
-2.9603725342E+01   -2.9488699846E+01   -2.9370789812E+01   -2.9250060047E+01
-2.9126582733E+01   -2.9000437165E+01   -2.8871709405E+01   -2.8740491873E+01
-2.8606882854E+01   -2.8470985957E+01   -2.8332909525E+01   -2.8192766007E+01
-2.8050671306E+01   -2.7906744121E+01   -2.7761105284E+01   -2.7613877116E+01
-2.7465182786E+01   -2.7315145712E+01   -2.7163888980E+01   -2.7011534795E+01
-2.6858203962E+01   -2.6704015399E+01   -2.6549085674E+01   -2.6393528564E+01
-2.6237454634E+01   -2.6080970827E+01   -2.5924180076E+01   -2.5767180907E+01
-2.5610067063E+01   -2.5452927123E+01   -2.5295844134E+01   -2.5138895246E+01
-2.4982151365E+01   -2.4825676824E+01   -2.4669529080E+01   -2.4513758463E+01
-2.4358407968E+01   -2.4203513123E+01   -2.4049101942E+01   -2.3895194992E+01
-2.3741805563E+01   -2.3588939996E+01   -2.3436598150E+01   -2.3284774027E+01
-2.3133456562E+01   -2.2982630564E+01   -2.2832277806E+01   -2.2682378224E+01
-2.2532911217E+01   -2.2383856993E+01   -2.2235197926E+01   -2.2086919874E+01
-2.1939013409E+01   -2.1791474916E+01   -2.1644307516E+01   -2.1497521778E+01
-2.1351136202E+01   -2.1205177445E+01   -2.1059680305E+01   -2.0914687453E+01
-2.0770248928E+01   -2.0626421440E+01   -2.0483267472E+01   -2.0340854241E+01
-2.0199252535E+01   -2.0058535447E+01   -1.9918777046E+01   -1.9780051002E+01
-1.9642429179E+01   -1.9505980229E+01   -1.9370768196E+01   -1.9236851170E+01
-1.9104280003E+01   -1.8973097138E+01   -1.8843335590E+01   -1.8715018128E+01
-1.8588156710E+01   -1.8462752232E+01   -1.8338794633E+01   -1.8216263374E+01
-1.8095128355E+01   -1.7975351175E+01   -1.7856886805E+01   -1.7739685496E+01
-1.7623694921E+01   -1.7508862365E+01   -1.7395136903E+01   -1.7282471368E+01
-1.7170824091E+01   -1.7060160214E+01   -1.6950452614E+01   -1.6841682340E+01
-1.6733838607E+01   -1.6626918378E+01   -1.6520925556E+01   -1.6415870007E+01
-1.6311766283E+01   -1.6208631929E+01   -1.6106486975E+01   -1.6005352972E+01
-1.5905252276E+01   -1.5806208126E+01   -1.5708240717E+01   -1.5611364784E+01
-1.5515589114E+01   -1.5420914377E+01   -1.5327340440E+01   -1.5234872477E+01
-1.5143516275E+01   -1.5053277407E+01   -1.4964158335E+01   -1.4876153245E+01
-1.4789252447E+01   -1.4703444894E+01   -1.4618718490E+01   -1.4535062521E+01
-1.4452466870E+01   -1.4370921828E+01   -1.4290417615E+01   -1.4210942122E+01
-1.4132481706E+01   -1.4055023491E+01   -1.3978555256E+01   -1.3903064698E+01
-1.3828540536E+01   -1.3754963060E+01   -1.3682294980E+01   -1.3610490281E+01
-1.3539484839E+01   -1.3469212688E+01   -1.3399633562E+01   -1.3330739092E+01
-1.3262531761E+01   -1.3195014635E+01   -1.3128193103E+01   -1.3062056250E+01
-1.2996586817E+01   -1.2931772356E+01   -1.2867608722E+01   -1.2804091977E+01
-1.2741213258E+01   -1.2678964008E+01   -1.2617336061E+01   -1.2556321482E+01
-1.2495912126E+01   -1.2436099598E+01   -1.2376875420E+01   -1.2318231028E+01
-1.2260157778E+01   -1.2202646963E+01   -1.2145689834E+01   -1.2089277624E+01
-1.2033401573E+01   -1.1978052948E+01   -1.1923223066E+01   -1.1868903323E+01
-1.1815085214E+01   -1.1761760353E+01   -1.1708920496E+01   -1.1656557558E+01
-1.1604663634E+01   -1.1553231011E+01   -1.1502252180E+01   -1.1451719852E+01
-1.1401626962E+01   -1.1351966680E+01   -1.1302732412E+01   -1.1253917802E+01
-1.1205516738E+01   -1.1157523341E+01   -1.1109931969E+01   -1.1062737206E+01
-1.1015933859E+01   -1.0969516944E+01   -1.0923481682E+01   -1.0877823480E+01
-1.0832537927E+01   -1.0787620774E+01   -1.0743067926E+01   -1.0698875423E+01
-1.0655039428E+01   -1.0611556213E+01   -1.0568422145E+01   -1.0525633672E+01
-1.0483187309E+01   -1.0441079629E+01   -1.0399307245E+01   -1.0357866808E+01
-1.0316754988E+01   -1.0275968473E+01   -1.0235503958E+01   -1.0195358137E+01
-1.0155527704E+01   -1.0116009341E+01   -1.0076799723E+01   -1.0037895512E+01
-9.9992933576E+00   -9.9609898979E+00   -9.9229817609E+00   -9.8852655673E+00
-9.8478379332E+00   -9.8106954741E+00   -9.7738348097E+00   -9.7372525684E+00
-9.7009453926E+00   -9.6649099442E+00   -9.6291429099E+00   -9.5936410070E+00
-9.5584009889E+00   -9.5234196497E+00   -9.4886938299E+00   -9.4542204210E+00
-9.4199963670E+00   -9.3860186746E+00   -9.3522844131E+00   -9.3187907312E+00
-9.2855348307E+00   -9.2525139056E+00   -9.2197252782E+00   -9.1871661791E+00
-9.1548344811E+00   -9.1227279037E+00   -9.0908441983E+00   -9.0591807648E+00
-9.0277347431E+00   -8.9965033863E+00   -8.9654842363E+00   -8.9346731925E+00
-8.9040674413E+00   -8.8736631271E+00   -8.8434620362E+00   -8.8134670949E+00
-8.7836808840E+00   -8.7541058459E+00   -8.7247352917E+00   -8.6955644370E+00
-8.6665863583E+00   -8.6377984034E+00   -8.6091996763E+00   -8.5807888862E+00
-8.5525658603E+00   -8.5245278894E+00   -8.4966731657E+00   -8.4689997672E+00
-8.4415058481E+00   -8.4141897676E+00   -8.3870498079E+00   -8.3600842699E+00
-8.3332914811E+00   -8.3066697906E+00   -8.2802175678E+00   -8.2539332034E+00
-8.2278151068E+00   -8.2018617080E+00   -8.1760714564E+00   -8.1504428211E+00
-8.1249742900E+00   -8.0996643696E+00   -8.0745115852E+00   -8.0495144799E+00
-8.0246716149E+00   -7.9999815691E+00   -7.9754429384E+00   -7.9510543362E+00
-7.9268143925E+00   -7.9027217537E+00   -7.8787750830E+00   -7.8549730592E+00
-7.8313143773E+00   -7.8077977477E+00   -7.7844218962E+00   -7.7611855638E+00
-7.7380875064E+00   -7.7151264947E+00   -7.6923013136E+00   -7.6696107627E+00
-7.6470536554E+00   -7.6246288189E+00   -7.6023350943E+00   -7.5801713359E+00
-7.5581364116E+00   -7.5362292022E+00   -7.5144486012E+00   -7.4927935152E+00
-7.4712628631E+00   -7.4498555761E+00   -7.4285705977E+00   -7.4074068835E+00
-7.3863634007E+00   -7.3654391283E+00   -7.3446330568E+00   -7.3239441879E+00
-7.3033715348E+00   -7.2829141215E+00   -7.2625709828E+00   -7.2423411644E+00
-7.2222237227E+00   -7.2022177241E+00   -7.1823222457E+00   -7.1625363746E+00
-7.1428592079E+00   -7.1232898525E+00   -7.1038274253E+00   -7.0844710525E+00
-7.0652198699E+00   -7.0460730227E+00   -7.0270296654E+00   -7.0080889613E+00
-6.9892500830E+00   -6.9705122119E+00   -6.9518745378E+00   -6.9333362597E+00
-6.9148965847E+00   -6.8965547283E+00   -6.8783099146E+00   -6.8601613755E+00
-6.8421083512E+00   -6.8241500900E+00   -6.8062858476E+00   -6.7885148880E+00
-6.7708364824E+00   -6.7532499099E+00   -6.7357544569E+00   -6.7183494171E+00
-6.7010340918E+00   -6.6838077890E+00   -6.6666698242E+00   -6.6496195198E+00
-6.6326562048E+00   -6.6157792155E+00   -6.5989878945E+00   -6.5822815915E+00
-6.5656596623E+00   -6.5491214696E+00   -6.5326663821E+00   -6.5162937752E+00
-6.5000030303E+00   -6.4837935350E+00   -6.4676646831E+00   -6.4516158743E+00
-6.4356465142E+00   -6.4197560146E+00   -6.4039437926E+00   -6.3882092713E+00
-6.3725518796E+00   -6.3569710516E+00   -6.3414662271E+00   -6.3260368516E+00
-6.3106823756E+00   -6.2954022550E+00   -6.2801959512E+00   -6.2650629305E+00
-6.2500026645E+00   -6.2350146298E+00   -6.2200983080E+00   -6.2052531856E+00
-6.1904787543E+00   -6.1757745101E+00   -6.1611399542E+00   -6.1465745924E+00
-6.1320779350E+00   -6.1176494972E+00   -6.1032887986E+00   -6.0889953631E+00
-6.0747687195E+00   -6.0606084005E+00   -6.0465139436E+00   -6.0324848902E+00
-6.0185207862E+00   -6.0046211816E+00   -5.9907856306E+00   -5.9770136914E+00
-5.9633049263E+00   -5.9496589017E+00   -5.9360751878E+00   -5.9225533588E+00
-5.9090929928E+00   -5.8956936717E+00   -5.8823549811E+00   -5.8690765105E+00
-5.8558578530E+00   -5.8426986053E+00   -5.8295983678E+00   -5.8165567445E+00
-5.8035733429E+00   -5.7906477739E+00   -5.7777796521E+00   -5.7649685953E+00
-5.7522142247E+00   -5.7395161650E+00   -5.7268740440E+00   -5.7142874930E+00
-5.7017561462E+00   -5.6892796414E+00   -5.6768576194E+00   -5.6644897239E+00
-5.6521756020E+00   -5.6399149038E+00   -5.6277072824E+00   -5.6155523939E+00
-5.6034498973E+00   -5.5913994545E+00   -5.5794007306E+00   -5.5674533932E+00
-5.5555571130E+00   -5.5437115633E+00   -5.5319164203E+00   -5.5201713630E+00
-5.5084760731E+00   -5.4968302349E+00   -5.4852335353E+00   -5.4736856641E+00
-5.4621863135E+00   -5.4507351783E+00   -5.4393319560E+00   -5.4279763464E+00
-5.4166680520E+00   -5.4054067777E+00   -5.3941922308E+00   -5.3830241210E+00
-5.3719021606E+00   -5.3608260641E+00   -5.3497955483E+00   -5.3388103325E+00
-5.3278701382E+00   -5.3169746892E+00   -5.3061237115E+00   -5.2953169334E+00
-5.2845540854E+00   -5.2738349002E+00   -5.2631591127E+00   -5.2525264597E+00
-5.2419366804E+00   -5.2313895161E+00   -5.2208847099E+00   -5.2104220072E+00
-5.2000011555E+00   -5.1896219041E+00   -5.1792840043E+00   -5.1689872096E+00
-5.1587312753E+00   -5.1485159587E+00   -5.1383410189E+00   -5.1282062170E+00
-5.1181113160E+00   -5.1080560807E+00   -5.0980402777E+00   -5.0880636756E+00
-5.0781260448E+00   -5.0682271571E+00   -5.0583667867E+00   -5.0485447090E+00
-5.0387607014E+00   -5.0290145431E+00   -5.0193060148E+00   -5.0096348990E+00
-5.0000009799E+00   -4.9904040432E+00   -4.9808438765E+00   -4.9713202688E+00
-4.9618330108E+00   -4.9523818949E+00   -4.9429667147E+00   -4.9335872659E+00
-4.9242433453E+00   -4.9149347515E+00   -4.9056612846E+00   -4.8964227460E+00
-4.8872189387E+00   -4.8780496675E+00   -4.8689147381E+00   -4.8598139580E+00
-4.8507471361E+00   -4.8417140826E+00   -4.8327146093E+00   -4.8237485293E+00
-4.8148156571E+00   -4.8059158084E+00   -4.7970488006E+00   -4.7882144521E+00
-4.7794125828E+00   -4.7706430141E+00   -4.7619055683E+00   -4.7532000694E+00
-4.7445263424E+00   -4.7358842137E+00   -4.7272735109E+00   -4.7186940631E+00
-4.7101457001E+00   -4.7016282536E+00   -4.6931415560E+00   -4.6846854411E+00
-4.6762597439E+00   -4.6678643005E+00   -4.6594989484E+00   -4.6511635261E+00
-4.6428578731E+00   -4.6345818303E+00   -4.6263352396E+00   -4.6181179441E+00
-4.6099297880E+00   -4.6017706166E+00   -4.5936402761E+00   -4.5855386141E+00
-4.5774654792E+00   -4.5694207208E+00   -4.5614041896E+00   -4.5534157374E+00
-4.5454552168E+00   -4.5375224817E+00   -4.5296173868E+00   -4.5217397879E+00
-4.5138895417E+00   -4.5060665061E+00   -4.4982705399E+00   -4.4905015028E+00
-4.4827592554E+00   -4.4750436595E+00   -4.4673545777E+00   -4.4596918736E+00
-4.4520554115E+00   -4.4444450571E+00   -4.4368606766E+00   -4.4293021372E+00
-4.4217693072E+00   -4.4142620555E+00   -4.4067802522E+00   -4.3993237680E+00
-4.3918924746E+00   -4.3844862446E+00   -4.3771049514E+00   -4.3697484693E+00
-4.3624166734E+00   -4.3551094396E+00   -4.3478266447E+00   -4.3405681664E+00
</PP_LOCAL>
<PP_NONLOCAL>
<PP_BETA.1
type="real"
size="600"
columns="4"
index="1"
angular_momentum="0"
cutoff_radius_index=" 196"
cutoff_radius="    1.9500000000E+00" >
1.6597814997E-09   -1.5150748517E-03   -2.7215143332E-03   -3.3143166153E-03
-2.9957070983E-03   -1.4786528190E-03    1.5097410014E-03    6.2249895890E-03
1.2902178089E-02    2.1753135490E-02    3.2963864227E-02    4.6692253924E-02
6.3066104719E-02    8.2181482282E-02    1.0410142307E-01    1.2885500461E-01
1.5643679167E-01    1.8680666516E-01    2.1989003635E-01    2.5557844510E-01
2.9373053631E-01    3.3417340490E-01    3.7670429565E-01    4.2109264021E-01
4.6708241007E-01    5.1439476054E-01    5.6273093810E-01    6.1177541980E-01
6.6119925168E-01    7.1066354998E-01    7.5982312799E-01    8.0833020915E-01
8.5583818632E-01    9.0200538657E-01    9.4649880035E-01    9.8899773439E-01
1.0291973482E+00    1.0668120355E+00    1.1015786125E+00    1.1332592782E+00
1.1616443134E+00    1.1865544875E+00    1.2078431464E+00    1.2253979560E+00
1.2391422827E+00    1.2490361927E+00    1.2550770571E+00    1.2572997566E+00
1.2557764783E+00    1.2506161080E+00    1.2419632196E+00    1.2299966730E+00
1.2149278316E+00    1.1969984179E+00    1.1764780283E+00    1.1536613312E+00
1.1288649785E+00    1.1024242606E+00    1.0746895413E+00    1.0460225086E+00
1.0167922807E+00    9.8737141035E-01    9.5813182697E-01    9.2944076286E-01
9.0165670547E-01    8.7512542023E-01    8.5017608702E-01    8.2711759264E-01
8.0623501996E-01    7.8778637286E-01    7.7199957350E-01    7.5906976592E-01
7.4915695671E-01    7.4238402029E-01    7.3883509231E-01    7.3855437092E-01
7.4154534123E-01    7.4777043386E-01    7.5715112406E-01    7.6956847293E-01
7.8486410782E-01    8.0284163410E-01    8.2326846589E-01    8.4587805888E-01
8.7037252373E-01    8.9642559471E-01    9.2368592405E-01    9.5178066873E-01
9.8031933362E-01    1.0088978313E+00    1.0371027167E+00    1.0645155532E+00
1.0907173632E+00    1.1152931179E+00    1.1378362178E+00    1.1579529171E+00
1.1752666434E+00    1.1894221683E+00    1.2000895819E+00    1.2069680287E+00
1.2097891648E+00    1.2083202969E+00    1.2023671688E+00    1.1917763639E+00
1.1764372968E+00    1.1562837689E+00    1.1312950720E+00    1.1014966236E+00
1.0669601259E+00    1.0278032438E+00    9.8418880350E-01    9.3632351771E-01
8.8445624786E-01    8.2887582037E-01    7.6990841724E-01    7.0791456677E-01
6.4328576449E-01    5.7644075753E-01    5.0782153073E-01    4.3788903519E-01
3.6711870324E-01    2.9599579572E-01    2.2501063037E-01    1.5465374074E-01
8.5411016093E-02    1.7758873714E-02   -4.7840485945E-02   -1.1094369099E-01
-1.7113062730E-01   -2.2800863924E-01   -2.8121645588E-01   -3.3042780040E-01
-3.7535464600E-01   -4.1575007990E-01   -4.5141074558E-01   -4.8217883925E-01
-5.0794363163E-01   -5.2864250473E-01   -5.4426148862E-01   -5.5483528805E-01
-5.6044680566E-01   -5.6122615558E-01   -5.5734918387E-01   -5.4903550923E-01
-5.3654609732E-01   -5.2018040461E-01   -5.0027310758E-01   -4.7719046193E-01
-4.5132632290E-01   -4.2309786851E-01   -3.9294107415E-01   -3.6130597801E-01
-3.2865179514E-01   -2.9544192324E-01   -2.6213889816E-01   -2.2919934742E-01
-1.9706899765E-01   -1.6617778637E-01   -1.3693512483E-01   -1.0972538591E-01
-8.4903615842E-02   -6.2791706830E-02   -4.3689880932E-02   -2.7785252813E-02
-1.5258376898E-02   -6.5663272920E-03   -1.7497077902E-03    1.4019799830E-04
3.2222619117E-04   -3.2419125709E-05   -1.0991332038E-04    4.3451941713E-06
2.0555311323E-05   -1.0719203156E-09   -9.2006479839E-09   -1.5138127461E-10
0.0000000000E+00    0.0000000000E+00    0.0000000000E+00    0.0000000000E+00
0.0000000000E+00    0.0000000000E+00    0.0000000000E+00    0.0000000000E+00
0.0000000000E+00    0.0000000000E+00    0.0000000000E+00    0.0000000000E+00
0.0000000000E+00    0.0000000000E+00    0.0000000000E+00    0.0000000000E+00
0.0000000000E+00    0.0000000000E+00    0.0000000000E+00    0.0000000000E+00
0. 0. 0. 0.
0. 0. 0. 0.
0. 0. 0. 0.
0. 0. 0. 0.
0. 0. 0. 0.
0. 0. 0. 0.
0. 0. 0. 0.
0. 0. 0. 0.
0. 0. 0. 0.
0. 0. 0. 0.
0. 0. 0. 0.
0. 0. 0. 0.
0. 0. 0. 0.
0. 0. 0. 0.
0. 0. 0. 0.
0. 0. 0. 0.
0. 0. 0. 0.
0. 0. 0. 0.
0. 0. 0. 0.
0. 0. 0. 0.
0. 0. 0. 0.
0. 0. 0. 0.
0. 0. 0. 0.
0. 0. 0. 0.
0. 0. 0. 0.
0. 0. 0. 0.
0. 0. 0. 0.
0. 0. 0. 0.
0. 0. 0. 0.
0. 0. 0. 0.
0. 0. 0. 0.