<UPF version="2.0.1">
<PP_INFO>
NOTE!!!!
This file is trimmed with a mesh size of 600 from the original version.
Trimming performed at 2023-03-31 09:10:05.082917 by trim_upf.py version 0.1.0

This pseudopotential file has been produced using the code
ONCVPSP  (Optimized Norm-Conservinng Vanderbilt PSeudopotential)
scalar-relativistic version 3.3.0 08/16/2017 by D. R. Hamann
The code is available through a link at URL www.mat-simresearch.com.
Documentation with the package provides a full discription of the
input data below.
While it is not required under the terms of the GNU GPL, it is
suggested that you cite D. R. Hamann, Phys. Rev. B 88, 085117 (2013)
in any publication using these pseudopotentials.
<PP_INPUTFILE>
# ATOM AND REFERENCE CONFIGURATION
# atsym  z   nc   nv     iexc    psfile
Ge 32.00    5    3       4      upf
#
#   n    l    f        energy (Ha)
1    0    2.00
2    0    2.00
2    1    6.00
3    0    2.00
3    1    6.00
3    2   10.00
4    0    2.00
4    1    2.00
#
# PSEUDOPOTENTIAL AND OPTIMIZATION
# lmax
2
#
#   l,   rc,      ep,       ncon, nbas, qcut
0   1.90000  -0.43112    4    7   4.70000
1   1.80000  -0.14315    4    7   5.00000
2   1.90000  -1.07715    4    7   8.80000
#
# LOCAL POTENTIAL
# lloc, lpopt,  rc(5),   dvloc0
4    5   1.75000      0.00000
#
# VANDERBILT-KLEINMAN-BYLANDER PROJECTORs
# l, nproj, debl
0    2   3.00000
1    2   2.50000
2    2   1.50000
#
# MODEL CORE CHARGE
# icmod, fcfact, rcfact
3   5.00000   1.40000
#
# LOG DERIVATIVE ANALYSIS
# epsh1, epsh2, depsh
-12.00   12.00    0.02
#
# OUTPUT GRID
# rlmax, drl
6.00    0.01
#
# TEST CONFIGURATIONS
# ncnf
0
# nvcnf
#   n    l    f
</PP_INPUTFILE>
</PP_INFO>
<!--                               -->
<!-- END OF HUMAN READABLE SECTION -->
<!--                               -->
<PP_HEADER
generated="Generated using ONCVPSP code by D. R. Hamann"
author="anonymous"
date="171031"
comment=""
element="Ge"
pseudo_type="NC"
relativistic="scalar"
is_ultrasoft="F"
is_paw="F"
is_coulomb="F"
has_so="F"
has_wfc="F"
has_gipaw="F"
core_correction="T"
functional="PBE"
z_valence="   14.00"
total_psenergy="  -1.59497251239E+02"
rho_cutoff="   1.55900000000E+01"
l_max="2"
l_local="-1"
mesh_size="   600"
number_of_wfc="3"
number_of_proj="6"/>
<PP_MESH>
<PP_R type="real"  size="600" columns="8">
0.0000    0.0100    0.0200    0.0300    0.0400    0.0500    0.0600    0.0700
0.0800    0.0900    0.1000    0.1100    0.1200    0.1300    0.1400    0.1500
0.1600    0.1700    0.1800    0.1900    0.2000    0.2100    0.2200    0.2300
0.2400    0.2500    0.2600    0.2700    0.2800    0.2900    0.3000    0.3100
0.3200    0.3300    0.3400    0.3500    0.3600    0.3700    0.3800    0.3900
0.4000    0.4100    0.4200    0.4300    0.4400    0.4500    0.4600    0.4700
0.4800    0.4900    0.5000    0.5100    0.5200    0.5300    0.5400    0.5500
0.5600    0.5700    0.5800    0.5900    0.6000    0.6100    0.6200    0.6300
0.6400    0.6500    0.6600    0.6700    0.6800    0.6900    0.7000    0.7100
0.7200    0.7300    0.7400    0.7500    0.7600    0.7700    0.7800    0.7900
0.8000    0.8100    0.8200    0.8300    0.8400    0.8500    0.8600    0.8700
0.8800    0.8900    0.9000    0.9100    0.9200    0.9300    0.9400    0.9500
0.9600    0.9700    0.9800    0.9900    1.0000    1.0100    1.0200    1.0300
1.0400    1.0500    1.0600    1.0700    1.0800    1.0900    1.1000    1.1100
1.1200    1.1300    1.1400    1.1500    1.1600    1.1700    1.1800    1.1900
1.2000    1.2100    1.2200    1.2300    1.2400    1.2500    1.2600    1.2700
1.2800    1.2900    1.3000    1.3100    1.3200    1.3300    1.3400    1.3500
1.3600    1.3700    1.3800    1.3900    1.4000    1.4100    1.4200    1.4300
1.4400    1.4500    1.4600    1.4700    1.4800    1.4900    1.5000    1.5100
1.5200    1.5300    1.5400    1.5500    1.5600    1.5700    1.5800    1.5900
1.6000    1.6100    1.6200    1.6300    1.6400    1.6500    1.6600    1.6700
1.6800    1.6900    1.7000    1.7100    1.7200    1.7300    1.7400    1.7500
1.7600    1.7700    1.7800    1.7900    1.8000    1.8100    1.8200    1.8300
1.8400    1.8500    1.8600    1.8700    1.8800    1.8900    1.9000    1.9100
1.9200    1.9300    1.9400    1.9500    1.9600    1.9700    1.9800    1.9900
2.0000    2.0100    2.0200    2.0300    2.0400    2.0500    2.0600    2.0700
2.0800    2.0900    2.1000    2.1100    2.1200    2.1300    2.1400    2.1500
2.1600    2.1700    2.1800    2.1900    2.2000    2.2100    2.2200    2.2300
2.2400    2.2500    2.2600    2.2700    2.2800    2.2900    2.3000    2.3100
2.3200    2.3300    2.3400    2.3500    2.3600    2.3700    2.3800    2.3900
2.4000    2.4100    2.4200    2.4300    2.4400    2.4500    2.4600    2.4700
2.4800    2.4900    2.5000    2.5100    2.5200    2.5300    2.5400    2.5500
2.5600    2.5700    2.5800    2.5900    2.6000    2.6100    2.6200    2.6300
2.6400    2.6500    2.6600    2.6700    2.6800    2.6900    2.7000    2.7100
2.7200    2.7300    2.7400    2.7500    2.7600    2.7700    2.7800    2.7900
2.8000    2.8100    2.8200    2.8300    2.8400    2.8500    2.8600    2.8700
2.8800    2.8900    2.9000    2.9100    2.9200    2.9300    2.9400    2.9500
2.9600    2.9700    2.9800    2.9900    3.0000    3.0100    3.0200    3.0300
3.0400    3.0500    3.0600    3.0700    3.0800    3.0900    3.1000    3.1100
3.1200    3.1300    3.1400    3.1500    3.1600    3.1700    3.1800    3.1900
3.2000    3.2100    3.2200    3.2300    3.2400    3.2500    3.2600    3.2700
3.2800    3.2900    3.3000    3.3100    3.3200    3.3300    3.3400    3.3500
3.3600    3.3700    3.3800    3.3900    3.4000    3.4100    3.4200    3.4300
3.4400    3.4500    3.4600    3.4700    3.4800    3.4900    3.5000    3.5100
3.5200    3.5300    3.5400    3.5500    3.5600    3.5700    3.5800    3.5900
3.6000    3.6100    3.6200    3.6300    3.6400    3.6500    3.6600    3.6700
3.6800    3.6900    3.7000    3.7100    3.7200    3.7300    3.7400    3.7500
3.7600    3.7700    3.7800    3.7900    3.8000    3.8100    3.8200    3.8300
3.8400    3.8500    3.8600    3.8700    3.8800    3.8900    3.9000    3.9100
3.9200    3.9300    3.9400    3.9500    3.9600    3.9700    3.9800    3.9900
4.0000    4.0100    4.0200    4.0300    4.0400    4.0500    4.0600    4.0700
4.0800    4.0900    4.1000    4.1100    4.1200    4.1300    4.1400    4.1500
4.1600    4.1700    4.1800    4.1900    4.2000    4.2100    4.2200    4.2300
4.2400    4.2500    4.2600    4.2700    4.2800    4.2900    4.3000    4.3100
4.3200    4.3300    4.3400    4.3500    4.3600    4.3700    4.3800    4.3900
4.4000    4.4100    4.4200    4.4300    4.4400    4.4500    4.4600    4.4700
4.4800    4.4900    4.5000    4.5100    4.5200    4.5300    4.5400    4.5500
4.5600    4.5700    4.5800    4.5900    4.6000    4.6100    4.6200    4.6300
4.6400    4.6500    4.6600    4.6700    4.6800    4.6900    4.7000    4.7100
4.7200    4.7300    4.7400    4.7500    4.7600    4.7700    4.7800    4.7900
4.8000    4.8100    4.8200    4.8300    4.8400    4.8500    4.8600    4.8700
4.8800    4.8900    4.9000    4.9100    4.9200    4.9300    4.9400    4.9500
4.9600    4.9700    4.9800    4.9900    5.0000    5.0100    5.0200    5.0300
5.0400    5.0500    5.0600    5.0700    5.0800    5.0900    5.1000    5.1100
5.1200    5.1300    5.1400    5.1500    5.1600    5.1700    5.1800    5.1900
5.2000    5.2100    5.2200    5.2300    5.2400    5.2500    5.2600    5.2700
5.2800    5.2900    5.3000    5.3100    5.3200    5.3300    5.3400    5.3500
5.3600    5.3700    5.3800    5.3900    5.4000    5.4100    5.4200    5.4300
5.4400    5.4500    5.4600    5.4700    5.4800    5.4900    5.5000    5.5100
5.5200    5.5300    5.5400    5.5500    5.5600    5.5700    5.5800    5.5900
5.6000    5.6100    5.6200    5.6300    5.6400    5.6500    5.6600    5.6700
5.6800    5.6900    5.7000    5.7100    5.7200    5.7300    5.7400    5.7500
5.7600    5.7700    5.7800    5.7900    5.8000    5.8100    5.8200    5.8300
5.8400    5.8500    5.8600    5.8700    5.8800    5.8900    5.9000    5.9100
5.9200    5.9300    5.9400    5.9500    5.9600    5.9700    5.9800    5.9900
</PP_R>
<PP_RAB type="real"  size="600" columns="8">
0.0100    0.0100    0.0100    0.0100    0.0100    0.0100    0.0100    0.0100
0.0100    0.0100    0.0100    0.0100    0.0100    0.0100    0.0100    0.0100
0.0100    0.0100    0.0100    0.0100    0.0100    0.0100    0.0100    0.0100
0.0100    0.0100    0.0100    0.0100    0.0100    0.0100    0.0100    0.0100
0.0100    0.0100    0.0100    0.0100    0.0100    0.0100    0.0100    0.0100
0.0100    0.0100    0.0100    0.0100    0.0100    0.0100    0.0100    0.0100
0.0100    0.0100    0.0100    0.0100    0.0100    0.0100    0.0100    0.0100
0.0100    0.0100    0.0100    0.0100    0.0100    0.0100    0.0100    0.0100
0.0100    0.0100    0.0100    0.0100    0.0100    0.0100    0.0100    0.0100
0.0100    0.0100    0.0100    0.0100    0.0100    0.0100    0.0100    0.0100
0.0100    0.0100    0.0100    0.0100    0.0100    0.0100    0.0100    0.0100
0.0100    0.0100    0.0100    0.0100    0.0100    0.0100    0.0100    0.0100
0.0100    0.0100    0.0100    0.0100    0.0100    0.0100    0.0100    0.0100
0.0100    0.0100    0.0100    0.0100    0.0100    0.0100    0.0100    0.0100
0.0100    0.0100    0.0100    0.0100    0.0100    0.0100    0.0100    0.0100
0.0100    0.0100    0.0100    0.0100    0.0100    0.0100    0.0100    0.0100
0.0100    0.0100    0.0100    0.0100    0.0100    0.0100    0.0100    0.0100
0.0100    0.0100    0.0100    0.0100    0.0100    0.0100    0.0100    0.0100
0.0100    0.0100    0.0100    0.0100    0.0100    0.0100    0.0100    0.0100
0.0100    0.0100    0.0100    0.0100    0.0100    0.0100    0.0100    0.0100
0.0100    0.0100    0.0100    0.0100    0.0100    0.0100    0.0100    0.0100
0.0100    0.0100    0.0100    0.0100    0.0100    0.0100    0.0100    0.0100
0.0100    0.0100    0.0100    0.0100    0.0100    0.0100    0.0100    0.0100
0.0100    0.0100    0.0100    0.0100    0.0100    0.0100    0.0100    0.0100
0.0100    0.0100    0.0100    0.0100    0.0100    0.0100    0.0100    0.0100
0.0100    0.0100    0.0100    0.0100    0.0100    0.0100    0.0100    0.0100
0.0100    0.0100    0.0100    0.0100    0.0100    0.0100    0.0100    0.0100
0.0100    0.0100    0.0100    0.0100    0.0100    0.0100    0.0100    0.0100
0.0100    0.0100    0.0100    0.0100    0.0100    0.0100    0.0100    0.0100
0.0100    0.0100    0.0100    0.0100    0.0100    0.0100    0.0100    0.0100
0.0100    0.0100    0.0100    0.0100    0.0100    0.0100    0.0100    0.0100
0.0100    0.0100    0.0100    0.0100    0.0100    0.0100    0.0100    0.0100
0.0100    0.0100    0.0100    0.0100    0.0100    0.0100    0.0100    0.0100
0.0100    0.0100    0.0100    0.0100    0.0100    0.0100    0.0100    0.0100
0.0100    0.0100    0.0100    0.0100    0.0100    0.0100    0.0100    0.0100
0.0100    0.0100    0.0100    0.0100    0.0100    0.0100    0.0100    0.0100
0.0100    0.0100    0.0100    0.0100    0.0100    0.0100    0.0100    0.0100
0.0100    0.0100    0.0100    0.0100    0.0100    0.0100    0.0100    0.0100
0.0100    0.0100    0.0100    0.0100    0.0100    0.0100    0.0100    0.0100
0.0100    0.0100    0.0100    0.0100    0.0100    0.0100    0.0100    0.0100
0.0100    0.0100    0.0100    0.0100    0.0100    0.0100    0.0100    0.0100
0.0100    0.0100    0.0100    0.0100    0.0100    0.0100    0.0100    0.0100
0.0100    0.0100    0.0100    0.0100    0.0100    0.0100    0.0100    0.0100
0.0100    0.0100    0.0100    0.0100    0.0100    0.0100    0.0100    0.0100
0.0100    0.0100    0.0100    0.0100    0.0100    0.0100    0.0100    0.0100
0.0100    0.0100    0.0100    0.0100    0.0100    0.0100    0.0100    0.0100
0.0100    0.0100    0.0100    0.0100    0.0100    0.0100    0.0100    0.0100
0.0100    0.0100    0.0100    0.0100    0.0100    0.0100    0.0100    0.0100
0.0100    0.0100    0.0100    0.0100    0.0100    0.0100    0.0100    0.0100
0.0100    0.0100    0.0100    0.0100    0.0100    0.0100    0.0100    0.0100
0.0100    0.0100    0.0100    0.0100    0.0100    0.0100    0.0100    0.0100
0.0100    0.0100    0.0100    0.0100    0.0100    0.0100    0.0100    0.0100
0.0100    0.0100    0.0100    0.0100    0.0100    0.0100    0.0100    0.0100
0.0100    0.0100    0.0100    0.0100    0.0100    0.0100    0.0100    0.0100
0.0100    0.0100    0.0100    0.0100    0.0100    0.0100    0.0100    0.0100
0.0100    0.0100    0.0100    0.0100    0.0100    0.0100    0.0100    0.0100
0.0100    0.0100    0.0100    0.0100    0.0100    0.0100    0.0100    0.0100
0.0100    0.0100    0.0100    0.0100    0.0100    0.0100    0.0100    0.0100
0.0100    0.0100    0.0100    0.0100    0.0100    0.0100    0.0100    0.0100
0.0100    0.0100    0.0100    0.0100    0.0100    0.0100    0.0100    0.0100
0.0100    0.0100    0.0100    0.0100    0.0100    0.0100    0.0100    0.0100
0.0100    0.0100    0.0100    0.0100    0.0100    0.0100    0.0100    0.0100
0.0100    0.0100    0.0100    0.0100    0.0100    0.0100    0.0100    0.0100
0.0100    0.0100    0.0100    0.0100    0.0100    0.0100    0.0100    0.0100
0.0100    0.0100    0.0100    0.0100    0.0100    0.0100    0.0100    0.0100
0.0100    0.0100    0.0100    0.0100    0.0100    0.0100    0.0100    0.0100
0.0100    0.0100    0.0100    0.0100    0.0100    0.0100    0.0100    0.0100
0.0100    0.0100    0.0100    0.0100    0.0100    0.0100    0.0100    0.0100
0.0100    0.0100    0.0100    0.0100    0.0100    0.0100    0.0100    0.0100
0.0100    0.0100    0.0100    0.0100    0.0100    0.0100    0.0100    0.0100
0.0100    0.0100    0.0100    0.0100    0.0100    0.0100    0.0100    0.0100
0.0100    0.0100    0.0100    0.0100    0.0100    0.0100    0.0100    0.0100
0.0100    0.0100    0.0100    0.0100    0.0100    0.0100    0.0100    0.0100
0.0100    0.0100    0.0100    0.0100    0.0100    0.0100    0.0100    0.0100
0.0100    0.0100    0.0100    0.0100    0.0100    0.0100    0.0100    0.0100
</PP_RAB>
</PP_MESH>
<PP_LOCAL type="real"  size="600" columns="4">
-3.1929054396E+01   -3.1929008079E+01   -3.1928869377E+01   -3.1928639051E+01
-3.1928318217E+01   -3.1927908138E+01   -3.1927409936E+01   -3.1926824240E+01
-3.1926150777E+01   -3.1925387919E+01   -3.1924532207E+01   -3.1923577847E+01
-3.1922516217E+01   -3.1921335375E+01   -3.1920019590E+01   -3.1918548915E+01
-3.1916898787E+01   -3.1915039692E+01   -3.1912936879E+01   -3.1910550139E+01
-3.1907833651E+01   -3.1904735896E+01   -3.1901199636E+01   -3.1897161976E+01
-3.1892554482E+01   -3.1887303377E+01   -3.1881329799E+01   -3.1874550118E+01
-3.1866876322E+01   -3.1858216442E+01   -3.1848475033E+01   -3.1837553695E+01
-3.1825351621E+01   -3.1811766172E+01   -3.1796693469E+01   -3.1780028986E+01
-3.1761668144E+01   -3.1741506886E+01   -3.1719442240E+01   -3.1695372843E+01
-3.1669199437E+01   -3.1640825321E+01   -3.1610156762E+01   -3.1577103363E+01
-3.1541578381E+01   -3.1503499020E+01   -3.1462786668E+01   -3.1419367124E+01
-3.1373170786E+01   -3.1324132836E+01   -3.1272193403E+01   -3.1217297741E+01
-3.1159396397E+01   -3.1098445396E+01   -3.1034406443E+01   -3.0967247133E+01
-3.0896941184E+01   -3.0823468685E+01   -3.0746816351E+01   -3.0666977785E+01
-3.0583953748E+01   -3.0497752403E+01   -3.0408389552E+01   -3.0315888837E+01
-3.0220281895E+01   -3.0121608466E+01   -3.0019916430E+01   -2.9915261769E+01
-2.9807708458E+01   -2.9697328255E+01   -2.9584200423E+01   -2.9468411349E+01
-2.9350054095E+01   -2.9229227873E+01   -2.9106037454E+01   -2.8980592534E+01
-2.8853007057E+01   -2.8723398517E+01   -2.8591887246E+01   -2.8458595708E+01
-2.8323647804E+01   -2.8187168189E+01   -2.8049281632E+01   -2.7910112384E+01
-2.7769783601E+01   -2.7628416778E+01   -2.7486131224E+01   -2.7343043562E+01
-2.7199267245E+01   -2.7054912091E+01   -2.6910083834E+01   -2.6764883677E+01
-2.6619407852E+01   -2.6473747184E+01   -2.6327986654E+01   -2.6182204968E+01
-2.6036474135E+01   -2.5890859057E+01   -2.5745417146E+01   -2.5600197974E+01
-2.5455242985E+01   -2.5310585270E+01   -2.5166249437E+01   -2.5022251598E+01
-2.4878599493E+01   -2.4735292774E+01   -2.4592323465E+01   -2.4449676624E+01
-2.4307331196E+01   -2.4165261070E+01   -2.4023436332E+01   -2.3881824672E+01
-2.3740392933E+01   -2.3599108745E+01   -2.3457942192E+01   -2.3316867463E+01
-2.3175864409E+01   -2.3034919959E+01   -2.2894029334E+01   -2.2753197021E+01
-2.2612437453E+01   -2.2471775399E+01   -2.2331246037E+01   -2.2190894721E+01
-2.2050776461E+01   -2.1910955131E+01   -2.1771502446E+01   -2.1632496722E+01
-2.1494021462E+01   -2.1356163775E+01   -2.1219012669E+01   -2.1082657209E+01
-2.0947184573E+01   -2.0812678009E+01   -2.0679214731E+01   -2.0546863767E+01
-2.0415683835E+01   -2.0285721325E+01   -2.0157008457E+01   -2.0029561789E+01
-1.9903381147E+01   -1.9778449202E+01   -1.9654731693E+01   -1.9532178550E+01
-1.9410725784E+01   -1.9290298258E+01   -1.9170813148E+01   -1.9052183937E+01
-1.8934324715E+01   -1.8817154481E+01   -1.8700601138E+01   -1.8584604944E+01
-1.8469121146E+01   -1.8354121653E+01   -1.8239595744E+01   -1.8125549698E+01
-1.8012005633E+01   -1.7898999545E+01   -1.7786578852E+01   -1.7674799667E+01
-1.7563723895E+01   -1.7453416524E+01   -1.7343943030E+01   -1.7235367228E+01
-1.7127749414E+01   -1.7021145015E+01   -1.6915603565E+01   -1.6811168114E+01
-1.6707874922E+01   -1.6605753445E+01   -1.6504826518E+01   -1.6405110697E+01
-1.6306616695E+01   -1.6209349900E+01   -1.6113310938E+01   -1.6018496022E+01
-1.5924897519E+01   -1.5832504927E+01   -1.5741305585E+01   -1.5651285337E+01
-1.5562429384E+01   -1.5474721593E+01   -1.5388144113E+01   -1.5302678078E+01
-1.5218302274E+01   -1.5134995525E+01   -1.5052738995E+01   -1.4971514889E+01
-1.4891307357E+01   -1.4812099920E+01   -1.4733866920E+01   -1.4656567759E+01
-1.4580156176E+01   -1.4504572746E+01   -1.4429762481E+01   -1.4355698715E+01
-1.4282375286E+01   -1.4209792724E+01   -1.4137950844E+01   -1.4066849964E+01
-1.3996475471E+01   -1.3926810102E+01   -1.3857842852E+01   -1.3789567102E+01
-1.3721975667E+01   -1.3655058057E+01   -1.3588803954E+01   -1.3523203657E+01
-1.3458247503E+01   -1.3393925752E+01   -1.3330228586E+01   -1.3267146224E+01
-1.3204668938E+01   -1.3142787066E+01   -1.3081491030E+01   -1.3020771363E+01
-1.2960618727E+01   -1.2901023933E+01   -1.2841977959E+01   -1.2783471967E+01
-1.2725497318E+01   -1.2668045585E+01   -1.2611108561E+01   -1.2554678271E+01
-1.2498746977E+01   -1.2443307183E+01   -1.2388351638E+01   -1.2333873332E+01
-1.2279865500E+01   -1.2226321614E+01   -1.2173235381E+01   -1.2120600732E+01
-1.2068411818E+01   -1.2016662996E+01   -1.1965348821E+01   -1.1914464034E+01
-1.1864003547E+01   -1.1813962434E+01   -1.1764335913E+01   -1.1715119337E+01
-1.1666308176E+01   -1.1617898008E+01   -1.1569884502E+01   -1.1522263410E+01
-1.1475030550E+01   -1.1428181800E+01   -1.1381713082E+01   -1.1335620358E+01
-1.1289899621E+01   -1.1244546883E+01   -1.1199558177E+01   -1.1154929543E+01
-1.1110657033E+01   -1.1066736701E+01   -1.1023164607E+01   -1.0979936811E+01
-1.0937049380E+01   -1.0894498383E+01   -1.0852279895E+01   -1.0810390004E+01
-1.0768824808E+01   -1.0727580423E+01   -1.0686652985E+01   -1.0646038657E+01
-1.0605733633E+01   -1.0565734142E+01   -1.0526036453E+01   -1.0486636880E+01
-1.0447531790E+01   -1.0408717601E+01   -1.0370190791E+01   -1.0331947898E+01
-1.0293985530E+01   -1.0256300363E+01   -1.0218889174E+01   -1.0181748723E+01
-1.0144875864E+01   -1.0108267461E+01   -1.0071920669E+01   -1.0035832878E+01
-1.0000001398E+01   -9.9644234715E+00   -9.9290958907E+00   -9.8940154417E+00
-9.8591795094E+00   -9.8245839172E+00   -9.7902251710E+00   -9.7560995823E+00
-9.7222061917E+00   -9.6885477665E+00   -9.6551256185E+00   -9.6219434051E+00
-9.5889943341E+00   -9.5562736056E+00   -9.5237746779E+00   -9.4914936849E+00
-9.4594295385E+00   -9.4275804994E+00   -9.3959460329E+00   -9.3645231998E+00
-9.3333098867E+00   -9.3023038828E+00   -9.2715030611E+00   -9.2409054775E+00
-9.2105091279E+00   -9.1803120316E+00   -9.1503122389E+00   -9.1205078249E+00
-9.0908968895E+00   -9.0614775573E+00   -9.0322479760E+00   -9.0032063175E+00
-8.9743507768E+00   -8.9456795722E+00   -8.9171909445E+00   -8.8888831567E+00
-8.8607544937E+00   -8.8328032620E+00   -8.8050277895E+00   -8.7774264247E+00
-8.7499975369E+00   -8.7227395156E+00   -8.6956507702E+00   -8.6687297298E+00
-8.6419748428E+00   -8.6153845767E+00   -8.5889574176E+00   -8.5626918703E+00
-8.5365864576E+00   -8.5106397203E+00   -8.4848502169E+00   -8.4592165231E+00
-8.4337372319E+00   -8.4084109532E+00   -8.3832363132E+00   -8.3582119549E+00
-8.3333365370E+00   -8.3086087345E+00   -8.2840272376E+00   -8.2595907524E+00
-8.2352979999E+00   -8.2111477161E+00   -8.1871386518E+00   -8.1632695724E+00
-8.1395392576E+00   -8.1159465011E+00   -8.0924901107E+00   -8.0691689079E+00
-8.0459817276E+00   -8.0229274182E+00   -8.0000048411E+00   -7.9772128707E+00
-7.9545503943E+00   -7.9320163116E+00   -7.9096095349E+00   -7.8873289886E+00
-7.8651736092E+00   -7.8431423451E+00   -7.8212341566E+00   -7.7994480153E+00
-7.7777829044E+00   -7.7562378184E+00   -7.7348117627E+00   -7.7135037538E+00
-7.6923128190E+00   -7.6712379961E+00   -7.6502783337E+00   -7.6294328904E+00
-7.6087007354E+00   -7.5880809476E+00   -7.5675726161E+00   -7.5471748398E+00
-7.5268867272E+00   -7.5067073965E+00   -7.4866359751E+00   -7.4666715998E+00
-7.4468134167E+00   -7.4270605808E+00   -7.4074122562E+00   -7.3878676155E+00
-7.3684258404E+00   -7.3490861210E+00   -7.3298476558E+00   -7.3107096517E+00
-7.2916713240E+00   -7.2727318961E+00   -7.2538905993E+00   -7.2351466730E+00
-7.2164993644E+00   -7.1979479283E+00   -7.1794916274E+00   -7.1611297318E+00
-7.1428615189E+00   -7.1246862738E+00   -7.1066032885E+00   -7.0886118623E+00
-7.0707113018E+00   -7.0529009202E+00   -7.0351800378E+00   -7.0175479818E+00
-7.0000040860E+00   -6.9825476908E+00   -6.9651781433E+00   -6.9478947969E+00
-6.9306970117E+00   -6.9135841537E+00   -6.8965555956E+00   -6.8796107159E+00
-6.8627488993E+00   -6.8459695367E+00   -6.8292720247E+00   -6.8126557658E+00
-6.7961201685E+00   -6.7796646467E+00   -6.7632886204E+00   -6.7469915147E+00
-6.7307727606E+00   -6.7146317944E+00   -6.6985680579E+00   -6.6825809980E+00
-6.6666700671E+00   -6.6508347227E+00   -6.6350744275E+00   -6.6193886492E+00
-6.6037768605E+00   -6.5882385393E+00   -6.5727731680E+00   -6.5573802343E+00
-6.5420592303E+00   -6.5268096531E+00   -6.5116310043E+00   -6.4965227902E+00
-6.4814845217E+00   -6.4665157142E+00   -6.4516158876E+00   -6.4367845661E+00
-6.4220212783E+00   -6.4073255573E+00   -6.3926969401E+00   -6.3781349684E+00
-6.3636391875E+00   -6.3492091474E+00   -6.3348444017E+00   -6.3205445083E+00
-6.3063090290E+00   -6.2921375295E+00   -6.2780295796E+00   -6.2639847526E+00
-6.2500026260E+00   -6.2360827806E+00   -6.2222248015E+00   -6.2084282769E+00
-6.1946927991E+00   -6.1810179637E+00   -6.1674033700E+00   -6.1538486209E+00
-6.1403533226E+00   -6.1269170848E+00   -6.1135395208E+00   -6.1002202469E+00
-6.0869588830E+00   -6.0737550524E+00   -6.0606083813E+00   -6.0475184994E+00
-6.0344850396E+00   -6.0215076379E+00   -6.0085859333E+00   -5.9957195680E+00
-5.9829081874E+00   -5.9701514396E+00   -5.9574489761E+00   -5.9448004509E+00
-5.9322055213E+00   -5.9196638474E+00   -5.9071750920E+00   -5.8947389211E+00
-5.8823550030E+00   -5.8700230093E+00   -5.8577426140E+00   -5.8455134940E+00
-5.8333353288E+00   -5.8212078006E+00   -5.8091305941E+00   -5.7971033970E+00
-5.7851258991E+00   -5.7731977931E+00   -5.7613187740E+00   -5.7494885396E+00
-5.7377067898E+00   -5.7259732272E+00   -5.7142875569E+00   -5.7026494861E+00
-5.6910587247E+00   -5.6795149847E+00   -5.6680179807E+00   -5.6565674292E+00
-5.6451630495E+00   -5.6338045627E+00   -5.6224916925E+00   -5.6112241645E+00
-5.6000017067E+00   -5.5888240492E+00   -5.5776909244E+00   -5.5666020665E+00
-5.5555572122E+00   -5.5445560999E+00   -5.5335984704E+00   -5.5226840663E+00
-5.5118126324E+00   -5.5009839154E+00   -5.4901976641E+00   -5.4794536291E+00
-5.4687515631E+00   -5.4580912206E+00   -5.4474723581E+00   -5.4368947340E+00
-5.4263581086E+00   -5.4158622438E+00   -5.4054069037E+00   -5.3949918540E+00
-5.3846168623E+00   -5.3742816979E+00   -5.3639861318E+00   -5.3537299371E+00
-5.3435128882E+00   -5.3333347614E+00   -5.3231953348E+00   -5.3130943881E+00
-5.3030317026E+00   -5.2930070614E+00   -5.2830202490E+00   -5.2730710518E+00
-5.2631592577E+00   -5.2532846562E+00   -5.2434470382E+00   -5.2336461964E+00
-5.2238819250E+00   -5.2141540196E+00   -5.2044622775E+00   -5.1948064975E+00
-5.1851864796E+00   -5.1756020256E+00   -5.1660529386E+00   -5.1565390233E+00
-5.1470600857E+00   -5.1376159332E+00   -5.1282063748E+00   -5.1188312206E+00
-5.1094902824E+00   -5.1001833731E+00   -5.0909103072E+00   -5.0816709004E+00
-5.0724649697E+00   -5.0632923336E+00   -5.0541528118E+00   -5.0450462252E+00
-5.0359723961E+00   -5.0269311482E+00   -5.0179223062E+00   -5.0089456963E+00
-5.0000011457E+00   -4.9910884830E+00   -4.9822075381E+00   -4.9733581418E+00
-4.9645401264E+00   -4.9557533253E+00   -4.9469975729E+00   -4.9382727051E+00
-4.9295785587E+00   -4.9209149717E+00   -4.9122817833E+00   -4.9036788338E+00
-4.8951059645E+00   -4.8865630181E+00   -4.8780498380E+00   -4.8695662690E+00
-4.8611121569E+00   -4.8526873486E+00   -4.8442916918E+00   -4.8359250356E+00
-4.8275872300E+00   -4.8192781259E+00   -4.8109975755E+00   -4.8027454319E+00
-4.7945215490E+00   -4.7863257820E+00   -4.7781579869E+00   -4.7700180208E+00
-4.7619057417E+00   -4.7538210086E+00   -4.7457636813E+00   -4.7377336208E+00
-4.7297306890E+00   -4.7217547485E+00   -4.7138056630E+00   -4.7058832972E+00
-4.6979875165E+00   -4.6901181874E+00   -4.6822751771E+00   -4.6744583539E+00
</PP_LOCAL>
<PP_NONLOCAL>
<PP_BETA.1
type="real"
size="600"
columns="4"
index="1"
angular_momentum="0"
cutoff_radius_index=" 196"
cutoff_radius="    1.9500000000E+00" >
-4.5276560279E-12    3.5494408909E-02    7.0957772913E-02    1.0635910080E-01
1.4166750850E-01    1.7685227218E-01    2.1188288059E-01    2.4672908669E-01
2.8136095809E-01    3.1574892640E-01    3.4986383502E-01    3.8367698534E-01
4.1716018121E-01    4.5028577138E-01    4.8302668984E-01    5.1535649396E-01
5.4724940018E-01    5.7868031723E-01    6.0962487675E-01    6.4005946121E-01
6.6996122903E-01    6.9930813692E-01    7.2807895930E-01    7.5625330486E-01
7.8381163013E-01    8.1073525022E-01    8.3700634662E-01    8.6260797212E-01
8.8752405297E-01    9.1173938824E-01    9.3523964654E-01    9.5801136021E-01
9.8004191699E-01    1.0013195494E+00    1.0218333218E+00    1.0415731159E+00
1.0605296133E+00    1.0786942777E+00    1.0960593345E+00    1.1126177496E+00
1.1283632068E+00    1.1432900844E+00    1.1573934311E+00    1.1706689410E+00
1.1831129290E+00    1.1947223054E+00    1.2054945509E+00    1.2154276922E+00
1.2245202775E+00    1.2327713537E+00    1.2401804434E+00    1.2467475242E+00
1.2524730084E+00    1.2573577248E+00    1.2614029021E+00    1.2646101539E+00
1.2669814657E+00    1.2685191846E+00    1.2692260101E+00    1.2691049885E+00
1.2681595086E+00    1.2663933005E+00    1.2638104367E+00    1.2604153356E+00
1.2562127680E+00    1.2512078654E+00    1.2454061312E+00    1.2388134544E+00
1.2314361252E+00    1.2232808536E+00    1.2143547889E+00    1.2046655426E+00
1.1942212119E+00    1.1830304059E+00    1.1711022721E+00    1.1584465251E+00
1.1450734761E+00    1.1309940627E+00    1.1162198797E+00    1.1007632100E+00
1.0846370553E+00    1.0678551668E+00    1.0504320749E+00    1.0323831182E+00
1.0137244713E+00    9.9447317069E-01    9.7464713938E-01    9.5426520871E-01
9.3334713810E-01    9.1191363187E-01    8.8998635298E-01    8.6758793342E-01
8.4474198092E-01    8.2147308187E-01    7.9780679989E-01    7.7376967024E-01
7.4938918948E-01    7.2469380043E-01    6.9971287216E-01    6.7447667489E-01
6.4901634971E-01    6.2336387296E-01    5.9755201529E-01    5.7161429532E-01
5.4558492790E-01    5.1949876701E-01    4.9339124335E-01    4.6729829674E-01
4.4125630339E-01    4.1530199831E-01    3.8947239292E-01    3.6380468816E-01
3.3833618336E-01    3.1310418112E-01    2.8814588856E-01    2.6349831518E-01
2.3919816788E-01    2.1528174336E-01    1.9178481851E-01    1.6874253899E-01
1.4618930678E-01    1.2415866691E-01    1.0268319407E-01    8.1794379535E-02
6.1522518919E-02    4.1896601417E-02    2.2944200960E-02    4.6913699146E-03
-1.2837464133E-02   -2.9619597950E-02   -4.5634148029E-02   -6.0862141225E-02
-7.5286600104E-02   -8.8892622486E-02   -1.0166745469E-01   -1.1360055797E-01
-1.2468366768E-01   -1.3491084475E-01   -1.4427851902E-01   -1.5278552411E-01
-1.6043312340E-01   -1.6722502680E-01   -1.7316739822E-01   -1.7826885313E-01
-1.8254044646E-01   -1.8599565024E-01   -1.8865032125E-01   -1.9052265836E-01
-1.9163314961E-01   -1.9200450912E-01   -1.9166160379E-01   -1.9063137005E-01
-1.8894272064E-01   -1.8662644183E-01   -1.8371508125E-01   -1.8024282653E-01
-1.7624537547E-01   -1.7175979754E-01   -1.6682438787E-01   -1.6147851351E-01
-1.5576245308E-01   -1.4971722991E-01   -1.4338443955E-01   -1.3680607218E-01
-1.3002433054E-01   -1.2308144408E-01   -1.1601948012E-01   -1.0888015262E-01
-1.0170462932E-01   -9.4533338176E-02   -8.7405772919E-02   -8.0360302347E-02
-7.3433972689E-02   -6.6662330599E-02   -6.0079245694E-02   -5.3716660718E-02
-4.7604445682E-02   -4.1770438096E-02   -3.6240429984E-02   -3.1038206488E-02
-2.6185620176E-02   -2.1702416369E-02   -1.7606106487E-02   -1.3911923744E-02
-1.0632726661E-02   -7.7804985307E-03   -5.3599125200E-03   -3.3702329484E-03
-1.8251229991E-03   -7.4513112557E-04   -1.1398671194E-04    1.4793286543E-04
1.4327605095E-04    3.3863953455E-05   -2.9912843976E-05   -2.2171485835E-05
0. 0. 0. 0.
0. 0. 0. 0.
0. 0. 0. 0.
0. 0. 0. 0.
0. 0. 0. 0.
0. 0. 0. 0.
0. 0. 0. 0.
0. 0. 0. 0.
0. 0. 0. 0.
0. 0. 0. 0.
0. 0. 0. 0.
0. 0. 0. 0.
0. 0. 0. 0.
0. 0. 0. 0.
0. 0. 0. 0.
0. 0. 0. 0.
0. 0. 0. 0.
0. 0. 0. 0.
0. 0. 0. 0.
0. 0. 0. 0.
0. 0. 0. 0.
0. 0. 0. 0.
0. 0. 0. 0.
0. 0. 0. 0.
0. 0. 0. 0.
0. 0. 0. 0.
0. 0. 0. 0.
0. 0. 0. 0.
0. 0. 0. 0.
0. 0. 0. 0.