<UPF version="2.0.1">
<PP_INFO>
NOTE!!!!
This file is trimmed with a mesh size of 600 from the original version.
Trimming performed at 2023-03-31 09:10:04.879081 by trim_upf.py version 0.1.0

This pseudopotential file has been produced using the code
ONCVPSP  (Optimized Norm-Conservinng Vanderbilt PSeudopotential)
scalar-relativistic version 3.3.0 08/16/2017 by D. R. Hamann
The code is available through a link at URL www.mat-simresearch.com.
Documentation with the package provides a full discription of the
input data below.
While it is not required under the terms of the GNU GPL, it is
suggested that you cite D. R. Hamann, Phys. Rev. B 88, 085117 (2013)
in any publication using these pseudopotentials.
<PP_INPUTFILE>
# ATOM AND REFERENCE CONFIGURATION
# atsym  z   nc   nv     iexc    psfile
H  1.00    0    1       4      upf
#
#   n    l    f        energy (Ha)
1    0    1.00
#
# PSEUDOPOTENTIAL AND OPTIMIZATION
# lmax
1
#
#   l,   rc,      ep,       ncon, nbas, qcut
0   1.00000  -0.23860    4    7   8.50000
1   0.70000   0.05000    4    7  11.00000
#
# LOCAL POTENTIAL
# lloc, lpopt,  rc(5),   dvloc0
4    5   0.70000      0.00000
#
# VANDERBILT-KLEINMAN-BYLANDER PROJECTORs
# l, nproj, debl
0    2   1.00000
1    1   1.00000
#
# MODEL CORE CHARGE
# icmod, fcfact, rcfact
0   0.00000   0.00000
#
# LOG DERIVATIVE ANALYSIS
# epsh1, epsh2, depsh
-12.00   12.00    0.02
#
# OUTPUT GRID
# rlmax, drl
3.00    0.01
#
# TEST CONFIGURATIONS
# ncnf
0
# nvcnf
#   n    l    f
</PP_INPUTFILE>
</PP_INFO>
<!--                               -->
<!-- END OF HUMAN READABLE SECTION -->
<!--                               -->
<PP_HEADER
generated="Generated using ONCVPSP code by D. R. Hamann"
author="anonymous"
date="171031"
comment=""
element="H "
pseudo_type="NC"
relativistic="scalar"
is_ultrasoft="F"
is_paw="F"
is_coulomb="F"
has_so="F"
has_wfc="F"
has_gipaw="F"
core_correction="F"
functional="PBE"
z_valence="    1.00"
total_psenergy="  -9.17469307532E-01"
rho_cutoff="   1.16500000000E+01"
l_max="1"
l_local="-1"
mesh_size="   600"
number_of_wfc="1"
number_of_proj="3"/>
<PP_MESH>
<PP_R type="real"  size="600" columns="8">
0.0000    0.0100    0.0200    0.0300    0.0400    0.0500    0.0600    0.0700
0.0800    0.0900    0.1000    0.1100    0.1200    0.1300    0.1400    0.1500
0.1600    0.1700    0.1800    0.1900    0.2000    0.2100    0.2200    0.2300
0.2400    0.2500    0.2600    0.2700    0.2800    0.2900    0.3000    0.3100
0.3200    0.3300    0.3400    0.3500    0.3600    0.3700    0.3800    0.3900
0.4000    0.4100    0.4200    0.4300    0.4400    0.4500    0.4600    0.4700
0.4800    0.4900    0.5000    0.5100    0.5200    0.5300    0.5400    0.5500
0.5600    0.5700    0.5800    0.5900    0.6000    0.6100    0.6200    0.6300
0.6400    0.6500    0.6600    0.6700    0.6800    0.6900    0.7000    0.7100
0.7200    0.7300    0.7400    0.7500    0.7600    0.7700    0.7800    0.7900
0.8000    0.8100    0.8200    0.8300    0.8400    0.8500    0.8600    0.8700
0.8800    0.8900    0.9000    0.9100    0.9200    0.9300    0.9400    0.9500
0.9600    0.9700    0.9800    0.9900    1.0000    1.0100    1.0200    1.0300
1.0400    1.0500    1.0600    1.0700    1.0800    1.0900    1.1000    1.1100
1.1200    1.1300    1.1400    1.1500    1.1600    1.1700    1.1800    1.1900
1.2000    1.2100    1.2200    1.2300    1.2400    1.2500    1.2600    1.2700
1.2800    1.2900    1.3000    1.3100    1.3200    1.3300    1.3400    1.3500
1.3600    1.3700    1.3800    1.3900    1.4000    1.4100    1.4200    1.4300
1.4400    1.4500    1.4600    1.4700    1.4800    1.4900    1.5000    1.5100
1.5200    1.5300    1.5400    1.5500    1.5600    1.5700    1.5800    1.5900
1.6000    1.6100    1.6200    1.6300    1.6400    1.6500    1.6600    1.6700
1.6800    1.6900    1.7000    1.7100    1.7200    1.7300    1.7400    1.7500
1.7600    1.7700    1.7800    1.7900    1.8000    1.8100    1.8200    1.8300
1.8400    1.8500    1.8600    1.8700    1.8800    1.8900    1.9000    1.9100
1.9200    1.9300    1.9400    1.9500    1.9600    1.9700    1.9800    1.9900
2.0000    2.0100    2.0200    2.0300    2.0400    2.0500    2.0600    2.0700
2.0800    2.0900    2.1000    2.1100    2.1200    2.1300    2.1400    2.1500
2.1600    2.1700    2.1800    2.1900    2.2000    2.2100    2.2200    2.2300
2.2400    2.2500    2.2600    2.2700    2.2800    2.2900    2.3000    2.3100
2.3200    2.3300    2.3400    2.3500    2.3600    2.3700    2.3800    2.3900
2.4000    2.4100    2.4200    2.4300    2.4400    2.4500    2.4600    2.4700
2.4800    2.4900    2.5000    2.5100    2.5200    2.5300    2.5400    2.5500
2.5600    2.5700    2.5800    2.5900    2.6000    2.6100    2.6200    2.6300
2.6400    2.6500    2.6600    2.6700    2.6800    2.6900    2.7000    2.7100
2.7200    2.7300    2.7400    2.7500    2.7600    2.7700    2.7800    2.7900
2.8000    2.8100    2.8200    2.8300    2.8400    2.8500    2.8600    2.8700
2.8800    2.8900    2.9000    2.9100    2.9200    2.9300    2.9400    2.9500
2.9600    2.9700    2.9800    2.9900    3.0000    3.0100    3.0200    3.0300
3.0400    3.0500    3.0600    3.0700    3.0800    3.0900    3.1000    3.1100
3.1200    3.1300    3.1400    3.1500    3.1600    3.1700    3.1800    3.1900
3.2000    3.2100    3.2200    3.2300    3.2400    3.2500    3.2600    3.2700
3.2800    3.2900    3.3000    3.3100    3.3200    3.3300    3.3400    3.3500
3.3600    3.3700    3.3800    3.3900    3.4000    3.4100    3.4200    3.4300
3.4400    3.4500    3.4600    3.4700    3.4800    3.4900    3.5000    3.5100
3.5200    3.5300    3.5400    3.5500    3.5600    3.5700    3.5800    3.5900
3.6000    3.6100    3.6200    3.6300    3.6400    3.6500    3.6600    3.6700
3.6800    3.6900    3.7000    3.7100    3.7200    3.7300    3.7400    3.7500
3.7600    3.7700    3.7800    3.7900    3.8000    3.8100    3.8200    3.8300
3.8400    3.8500    3.8600    3.8700    3.8800    3.8900    3.9000    3.9100
3.9200    3.9300    3.9400    3.9500    3.9600    3.9700    3.9800    3.9900
4.0000    4.0100    4.0200    4.0300    4.0400    4.0500    4.0600    4.0700
4.0800    4.0900    4.1000    4.1100    4.1200    4.1300    4.1400    4.1500
4.1600    4.1700    4.1800    4.1900    4.2000    4.2100    4.2200    4.2300
4.2400    4.2500    4.2600    4.2700    4.2800    4.2900    4.3000    4.3100
4.3200    4.3300    4.3400    4.3500    4.3600    4.3700    4.3800    4.3900
4.4000    4.4100    4.4200    4.4300    4.4400    4.4500    4.4600    4.4700
4.4800    4.4900    4.5000    4.5100    4.5200    4.5300    4.5400    4.5500
4.5600    4.5700    4.5800    4.5900    4.6000    4.6100    4.6200    4.6300
4.6400    4.6500    4.6600    4.6700    4.6800    4.6900    4.7000    4.7100
4.7200    4.7300    4.7400    4.7500    4.7600    4.7700    4.7800    4.7900
4.8000    4.8100    4.8200    4.8300    4.8400    4.8500    4.8600    4.8700
4.8800    4.8900    4.9000    4.9100    4.9200    4.9300    4.9400    4.9500
4.9600    4.9700    4.9800    4.9900    5.0000    5.0100    5.0200    5.0300
5.0400    5.0500    5.0600    5.0700    5.0800    5.0900    5.1000    5.1100
5.1200    5.1300    5.1400    5.1500    5.1600    5.1700    5.1800    5.1900
5.2000    5.2100    5.2200    5.2300    5.2400    5.2500    5.2600    5.2700
5.2800    5.2900    5.3000    5.3100    5.3200    5.3300    5.3400    5.3500
5.3600    5.3700    5.3800    5.3900    5.4000    5.4100    5.4200    5.4300
5.4400    5.4500    5.4600    5.4700    5.4800    5.4900    5.5000    5.5100
5.5200    5.5300    5.5400    5.5500    5.5600    5.5700    5.5800    5.5900
5.6000    5.6100    5.6200    5.6300    5.6400    5.6500    5.6600    5.6700
5.6800    5.6900    5.7000    5.7100    5.7200    5.7300    5.7400    5.7500
5.7600    5.7700    5.7800    5.7900    5.8000    5.8100    5.8200    5.8300
5.8400    5.8500    5.8600    5.8700    5.8800    5.8900    5.9000    5.9100
5.9200    5.9300    5.9400    5.9500    5.9600    5.9700    5.9800    5.9900
</PP_R>
<PP_RAB type="real"  size="600" columns="8">
0.0100    0.0100    0.0100    0.0100    0.0100    0.0100    0.0100    0.0100
0.0100    0.0100    0.0100    0.0100    0.0100    0.0100    0.0100    0.0100
0.0100    0.0100    0.0100    0.0100    0.0100    0.0100    0.0100    0.0100
0.0100    0.0100    0.0100    0.0100    0.0100    0.0100    0.0100    0.0100
0.0100    0.0100    0.0100    0.0100    0.0100    0.0100    0.0100    0.0100
0.0100    0.0100    0.0100    0.0100    0.0100    0.0100    0.0100    0.0100
0.0100    0.0100    0.0100    0.0100    0.0100    0.0100    0.0100    0.0100
0.0100    0.0100    0.0100    0.0100    0.0100    0.0100    0.0100    0.0100
0.0100    0.0100    0.0100    0.0100    0.0100    0.0100    0.0100    0.0100
0.0100    0.0100    0.0100    0.0100    0.0100    0.0100    0.0100    0.0100
0.0100    0.0100    0.0100    0.0100    0.0100    0.0100    0.0100    0.0100
0.0100    0.0100    0.0100    0.0100    0.0100    0.0100    0.0100    0.0100
0.0100    0.0100    0.0100    0.0100    0.0100    0.0100    0.0100    0.0100
0.0100    0.0100    0.0100    0.0100    0.0100    0.0100    0.0100    0.0100
0.0100    0.0100    0.0100    0.0100    0.0100    0.0100    0.0100    0.0100
0.0100    0.0100    0.0100    0.0100    0.0100    0.0100    0.0100    0.0100
0.0100    0.0100    0.0100    0.0100    0.0100    0.0100    0.0100    0.0100
0.0100    0.0100    0.0100    0.0100    0.0100    0.0100    0.0100    0.0100
0.0100    0.0100    0.0100    0.0100    0.0100    0.0100    0.0100    0.0100
0.0100    0.0100    0.0100    0.0100    0.0100    0.0100    0.0100    0.0100
0.0100    0.0100    0.0100    0.0100    0.0100    0.0100    0.0100    0.0100
0.0100    0.0100    0.0100    0.0100    0.0100    0.0100    0.0100    0.0100
0.0100    0.0100    0.0100    0.0100    0.0100    0.0100    0.0100    0.0100
0.0100    0.0100    0.0100    0.0100    0.0100    0.0100    0.0100    0.0100
0.0100    0.0100    0.0100    0.0100    0.0100    0.0100    0.0100    0.0100
0.0100    0.0100    0.0100    0.0100    0.0100    0.0100    0.0100    0.0100
0.0100    0.0100    0.0100    0.0100    0.0100    0.0100    0.0100    0.0100
0.0100    0.0100    0.0100    0.0100    0.0100    0.0100    0.0100    0.0100
0.0100    0.0100    0.0100    0.0100    0.0100    0.0100    0.0100    0.0100
0.0100    0.0100    0.0100    0.0100    0.0100    0.0100    0.0100    0.0100
0.0100    0.0100    0.0100    0.0100    0.0100    0.0100    0.0100    0.0100
0.0100    0.0100    0.0100    0.0100    0.0100    0.0100    0.0100    0.0100
0.0100    0.0100    0.0100    0.0100    0.0100    0.0100    0.0100    0.0100
0.0100    0.0100    0.0100    0.0100    0.0100    0.0100    0.0100    0.0100
0.0100    0.0100    0.0100    0.0100    0.0100    0.0100    0.0100    0.0100
0.0100    0.0100    0.0100    0.0100    0.0100    0.0100    0.0100    0.0100
0.0100    0.0100    0.0100    0.0100    0.0100    0.0100    0.0100    0.0100
0.0100    0.0100    0.0100    0.0100    0.0100    0.0100    0.0100    0.0100
0.0100    0.0100    0.0100    0.0100    0.0100    0.0100    0.0100    0.0100
0.0100    0.0100    0.0100    0.0100    0.0100    0.0100    0.0100    0.0100
0.0100    0.0100    0.0100    0.0100    0.0100    0.0100    0.0100    0.0100
0.0100    0.0100    0.0100    0.0100    0.0100    0.0100    0.0100    0.0100
0.0100    0.0100    0.0100    0.0100    0.0100    0.0100    0.0100    0.0100
0.0100    0.0100    0.0100    0.0100    0.0100    0.0100    0.0100    0.0100
0.0100    0.0100    0.0100    0.0100    0.0100    0.0100    0.0100    0.0100
0.0100    0.0100    0.0100    0.0100    0.0100    0.0100    0.0100    0.0100
0.0100    0.0100    0.0100    0.0100    0.0100    0.0100    0.0100    0.0100
0.0100    0.0100    0.0100    0.0100    0.0100    0.0100    0.0100    0.0100
0.0100    0.0100    0.0100    0.0100    0.0100    0.0100    0.0100    0.0100
0.0100    0.0100    0.0100    0.0100    0.0100    0.0100    0.0100    0.0100
0.0100    0.0100    0.0100    0.0100    0.0100    0.0100    0.0100    0.0100
0.0100    0.0100    0.0100    0.0100    0.0100    0.0100    0.0100    0.0100
0.0100    0.0100    0.0100    0.0100    0.0100    0.0100    0.0100    0.0100
0.0100    0.0100    0.0100    0.0100    0.0100    0.0100    0.0100    0.0100
0.0100    0.0100    0.0100    0.0100    0.0100    0.0100    0.0100    0.0100
0.0100    0.0100    0.0100    0.0100    0.0100    0.0100    0.0100    0.0100
0.0100    0.0100    0.0100    0.0100    0.0100    0.0100    0.0100    0.0100
0.0100    0.0100    0.0100    0.0100    0.0100    0.0100    0.0100    0.0100
0.0100    0.0100    0.0100    0.0100    0.0100    0.0100    0.0100    0.0100
0.0100    0.0100    0.0100    0.0100    0.0100    0.0100    0.0100    0.0100
0.0100    0.0100    0.0100    0.0100    0.0100    0.0100    0.0100    0.0100
0.0100    0.0100    0.0100    0.0100    0.0100    0.0100    0.0100    0.0100
0.0100    0.0100    0.0100    0.0100    0.0100    0.0100    0.0100    0.0100
0.0100    0.0100    0.0100    0.0100    0.0100    0.0100    0.0100    0.0100
0.0100    0.0100    0.0100    0.0100    0.0100    0.0100    0.0100    0.0100
0.0100    0.0100    0.0100    0.0100    0.0100    0.0100    0.0100    0.0100
0.0100    0.0100    0.0100    0.0100    0.0100    0.0100    0.0100    0.0100
0.0100    0.0100    0.0100    0.0100    0.0100    0.0100    0.0100    0.0100
0.0100    0.0100    0.0100    0.0100    0.0100    0.0100    0.0100    0.0100
0.0100    0.0100    0.0100    0.0100    0.0100    0.0100    0.0100    0.0100
0.0100    0.0100    0.0100    0.0100    0.0100    0.0100    0.0100    0.0100
0.0100    0.0100    0.0100    0.0100    0.0100    0.0100    0.0100    0.0100
0.0100    0.0100    0.0100    0.0100    0.0100    0.0100    0.0100    0.0100
0.0100    0.0100    0.0100    0.0100    0.0100    0.0100    0.0100    0.0100
0.0100    0.0100    0.0100    0.0100    0.0100    0.0100    0.0100    0.0100
</PP_RAB>
</PP_MESH>
<PP_LOCAL type="real"  size="600" columns="4">
-6.3046688226E+00   -6.3029573079E+00   -6.2978339557E+00   -6.2893312660E+00
-6.2775022316E+00   -6.2624185879E+00   -6.2441685264E+00   -6.2228540242E+00
-6.1985879409E+00   -6.1714910416E+00   -6.1416890965E+00   -6.1093101886E+00
-6.0744823275E+00   -6.0373314449E+00   -5.9979798065E+00   -5.9565448525E+00
-5.9131384513E+00   -5.8678665313E+00   -5.8208290427E+00   -5.7721201943E+00
-5.7218289052E+00   -5.6700394133E+00   -5.6168319871E+00   -5.5622836920E+00
-5.5064691693E+00   -5.4494613946E+00   -5.3913323887E+00   -5.3321538601E+00
-5.2719977656E+00   -5.2109367806E+00   -5.1490446725E+00   -5.0863965782E+00
-5.0230691854E+00   -4.9591408231E+00   -4.8946914649E+00   -4.8298026532E+00
-4.7645573512E+00   -4.6990397305E+00   -4.6333349039E+00   -4.5675286109E+00
-4.5017068666E+00   -4.4359555809E+00   -4.3703601590E+00   -4.3050050899E+00
-4.2399735316E+00   -4.1753469014E+00   -4.1112044755E+00   -4.0476230070E+00
-3.9846763631E+00   -3.9224351889E+00   -3.8609665971E+00   -3.8003338858E+00
-3.7405962840E+00   -3.6818087238E+00   -3.6240216355E+00   -3.5672807634E+00
-3.5116269972E+00   -3.4570962161E+00   -3.4037191382E+00   -3.3515211743E+00
-3.3005222783E+00   -3.2507367937E+00   -3.2021732914E+00   -3.1548343986E+00
-3.1087166163E+00   -3.0638101269E+00   -3.0200985913E+00   -2.9775589381E+00
-2.9361611455E+00   -2.8958680166E+00   -2.8566349704E+00   -2.8184097350E+00
-2.7811343520E+00   -2.7447521134E+00   -2.7092107678E+00   -2.6744624128E+00
-2.6404634994E+00   -2.6071747994E+00   -2.5745613652E+00   -2.5425924743E+00
-2.5112415502E+00   -2.4804860529E+00   -2.4503073354E+00   -2.4206904587E+00
-2.3916239656E+00   -2.3630996095E+00   -2.3351120410E+00   -2.3076584534E+00
-2.2807381917E+00   -2.2543523318E+00   -2.2285032353E+00   -2.2031940916E+00
-2.1784284531E+00   -2.1542097772E+00   -2.1305409829E+00   -2.1074240341E+00
-2.0848595571E+00   -2.0628465492E+00   -2.0413818291E+00   -2.0204605559E+00
-2.0000764964E+00   -1.9802076891E+00   -1.9607976294E+00   -1.9417695462E+00
-1.9230947802E+00   -1.9047755973E+00   -1.8868078706E+00   -1.8691738500E+00
-1.8518663728E+00   -1.8348767394E+00   -1.8181959221E+00   -1.8018156723E+00
-1.7857279283E+00   -1.7699249247E+00   -1.7543991682E+00   -1.7391434264E+00
-1.7241507160E+00   -1.7094142928E+00   -1.6949276408E+00   -1.6806844634E+00
-1.6666786736E+00   -1.6529043858E+00   -1.6393559073E+00   -1.6260277305E+00
-1.6129145256E+00   -1.6000111331E+00   -1.5873125577E+00   -1.5748139610E+00
-1.5625106560E+00   -1.5503981010E+00   -1.5384718942E+00   -1.5267277679E+00
-1.5151615841E+00   -1.5037693288E+00   -1.4925471082E+00   -1.4814911438E+00
-1.4705977680E+00   -1.4598634206E+00   -1.4492846444E+00   -1.4388580817E+00
-1.4285804708E+00   -1.4184486425E+00   -1.4084595168E+00   -1.3986101001E+00
-1.3888974816E+00   -1.3793188311E+00   -1.3698713957E+00   -1.3605524977E+00
-1.3513595315E+00   -1.3422899615E+00   -1.3333413198E+00   -1.3245112039E+00
-1.3157972744E+00   -1.3071972531E+00   -1.2987089210E+00   -1.2903301164E+00
-1.2820587331E+00   -1.2738927182E+00   -1.2658300712E+00   -1.2578688417E+00
-1.2500071280E+00   -1.2422430760E+00   -1.2345748769E+00   -1.2270007667E+00
-1.2195190242E+00   -1.2121279698E+00   -1.2048259648E+00   -1.1976114094E+00
-1.1904827419E+00   -1.1834384378E+00   -1.1764770082E+00   -1.1695969992E+00
-1.1627969906E+00   -1.1560755952E+00   -1.1494314576E+00   -1.1428632532E+00
-1.1363696878E+00   -1.1299494964E+00   -1.1236014421E+00   -1.1173243161E+00
-1.1111169362E+00   -1.1049781463E+00   -1.0989068159E+00   -1.0929018390E+00
-1.0869621338E+00   -1.0810866418E+00   -1.0752743273E+00   -1.0695241767E+00
-1.0638351981E+00   -1.0582064204E+00   -1.0526368932E+00   -1.0471256857E+00
-1.0416718867E+00   -1.0362746038E+00   -1.0309329631E+00   -1.0256461086E+00
-1.0204132015E+00   -1.0152334205E+00   -1.0101059606E+00   -1.0050300329E+00
-1.0000048645E+00   -9.9502969780E-01   -9.9010379018E-01   -9.8522641367E-01
-9.8039685456E-01   -9.7561441308E-01   -9.7087840305E-01   -9.6618815153E-01
-9.6154299855E-01   -9.5694229675E-01   -9.5238541110E-01   -9.4787171863E-01
-9.4340060811E-01   -9.3897147977E-01   -9.3458374509E-01   -9.3023682648E-01
-9.2593015703E-01   -9.2166318031E-01   -9.1743535009E-01   -9.1324613009E-01
-9.0909499383E-01   -9.0498142432E-01   -9.0090491390E-01   -8.9686496402E-01
-8.9286108503E-01   -8.8889279597E-01   -8.8495962441E-01   -8.8106110625E-01
-8.7719678552E-01   -8.7336621422E-01   -8.6956895213E-01   -8.6580456667E-01
-8.6207263271E-01   -8.5837273242E-01   -8.5470445511E-01   -8.5106739709E-01
-8.4746116150E-01   -8.4388535818E-01   -8.4033960354E-01   -8.3682352040E-01
-8.3333673787E-01   -8.2987889120E-01   -8.2644962170E-01   -8.2304857656E-01
-8.1967540876E-01   -8.1632977695E-01   -8.1301134533E-01   -8.0971978353E-01
-8.0645476653E-01   -8.0321597450E-01   -8.0000309275E-01   -7.9681581160E-01
-7.9365382628E-01   -7.9051683685E-01   -7.8740454808E-01   -7.8431666938E-01
-7.8125291470E-01   -7.7821300245E-01   -7.7519665538E-01   -7.7220360055E-01
-7.6923356920E-01   -7.6628629670E-01   -7.6336152246E-01   -7.6045898985E-01
-7.5757844612E-01   -7.5471964236E-01   -7.5188233337E-01   -7.4906627765E-01
-7.4627123730E-01   -7.4349697794E-01   -7.4074326868E-01   -7.3800988203E-01
-7.3529659386E-01   -7.3260318330E-01   -7.2992943272E-01   -7.2727512766E-01
-7.2464005675E-01   -7.2202401168E-01   -7.1942678715E-01   -7.1684818079E-01
-7.1428799313E-01   -7.1174602752E-01   -7.0922209012E-01   -7.0671598982E-01
-7.0422753821E-01   -7.0175654952E-01   -6.9930284057E-01   -6.9686623075E-01
-6.9444654193E-01   -6.9204359848E-01   -6.8965722717E-01   -6.8728725715E-01
-6.8493351994E-01   -6.8259584931E-01   -6.8027408134E-01   -6.7796805430E-01
-6.7567760866E-01   -6.7340258704E-01   -6.7114283416E-01   -6.6889819683E-01
-6.6666852390E-01   -6.6445366623E-01   -6.6225347664E-01   -6.6006780991E-01
-6.5789652272E-01   -6.5573947365E-01   -6.5359652310E-01   -6.5146753330E-01
-6.4935236828E-01   -6.4725089382E-01   -6.4516297743E-01   -6.4308848832E-01
-6.4102729740E-01   -6.3897927720E-01   -6.3694430190E-01   -6.3492224725E-01
-6.3291299059E-01   -6.3091641081E-01   -6.2893238833E-01   -6.2696080503E-01
-6.2500154431E-01   -6.2305449101E-01   -6.2111953140E-01   -6.1919655314E-01
-6.1728544530E-01   -6.1538609831E-01   -6.1349840395E-01   -6.1162225530E-01
-6.0975754677E-01   -6.0790417403E-01   -6.0606203405E-01   -6.0423102500E-01
-6.0241104632E-01   -6.0060199863E-01   -5.9880378373E-01   -5.9701630464E-01
-5.9523946548E-01   -5.9347317155E-01   -5.9171732924E-01   -5.8997184607E-01
-5.8823663062E-01   -5.8651159257E-01   -5.8479664263E-01   -5.8309169259E-01
-5.8139665522E-01   -5.7971144432E-01   -5.7803597471E-01   -5.7637016215E-01
-5.7471392339E-01   -5.7306717615E-01   -5.7142983906E-01   -5.6980183169E-01
-5.6818307452E-01   -5.6657348895E-01   -5.6497299724E-01   -5.6338152254E-01
-5.6179898888E-01   -5.6022532110E-01   -5.5866044491E-01   -5.5710428686E-01
-5.5555677427E-01   -5.5401783531E-01   -5.5248739892E-01   -5.5096539483E-01
-5.4945175354E-01   -5.4794640632E-01   -5.4644928518E-01   -5.4496032287E-01
-5.4347945288E-01   -5.4200660941E-01   -5.4054172740E-01   -5.3908474244E-01
-5.3763559087E-01   -5.3619420967E-01   -5.3476053651E-01   -5.3333450972E-01
-5.3191606830E-01   -5.3050515188E-01   -5.2910170074E-01   -5.2770565578E-01
-5.2631695853E-01   -5.2493555114E-01   -5.2356137635E-01   -5.2219437751E-01
-5.2083449855E-01   -5.1948168399E-01   -5.1813587893E-01   -5.1679702902E-01
-5.1546508049E-01   -5.1413998011E-01   -5.1282167520E-01   -5.1151011363E-01
-5.1020524377E-01   -5.0890701455E-01   -5.0761537540E-01   -5.0633027627E-01
-5.0505166761E-01   -5.0377950037E-01   -5.0251372600E-01   -5.0125429643E-01
-5.0000116406E-01   -4.9875428180E-01   -4.9751360299E-01   -4.9627908145E-01
-4.9505067145E-01   -4.9382832773E-01   -4.9261200546E-01   -4.9140166025E-01
-4.9019724816E-01   -4.8899872565E-01   -4.8780604963E-01   -4.8661917744E-01
-4.8543806679E-01   -4.8426267585E-01   -4.8309296316E-01   -4.8192888767E-01
-4.8077040873E-01   -4.7961748608E-01   -4.7847007983E-01   -4.7732815048E-01
-4.7619165892E-01   -4.7506056639E-01   -4.7393483451E-01   -4.7281442526E-01
-4.7169930098E-01   -4.7058942436E-01   -4.6948475844E-01   -4.6838526661E-01
-4.6729091261E-01   -4.6620166050E-01   -4.6511747469E-01   -4.6403831992E-01
-4.6296416123E-01   -4.6189496403E-01   -4.6083069400E-01   -4.5977131717E-01
-4.5871679987E-01   -4.5766710874E-01   -4.5662221071E-01   -4.5558207304E-01
-4.5454666327E-01   -4.5351594922E-01   -4.5248989903E-01   -4.5146848112E-01
-4.5045166418E-01   -4.4943941720E-01   -4.4843170943E-01   -4.4742851041E-01
-4.4642978994E-01   -4.4543551811E-01   -4.4444566524E-01   -4.4346020196E-01
-4.4247909911E-01   -4.4150232783E-01   -4.4052985949E-01   -4.3956166572E-01
-4.3859771839E-01   -4.3763798963E-01   -4.3668245181E-01   -4.3573107753E-01
-4.3478383963E-01   -4.3384071121E-01   -4.3290166557E-01   -4.3196667626E-01
-4.3103571705E-01   -4.3010876194E-01   -4.2918578516E-01   -4.2826676114E-01
-4.2735166455E-01   -4.2644047026E-01   -4.2553315337E-01   -4.2462968917E-01
-4.2373005319E-01   -4.2283422113E-01   -4.2194216893E-01   -4.2105387270E-01
-4.2016930879E-01   -4.1928845370E-01   -4.1841128418E-01   -4.1753777712E-01
-4.1666790965E-01   -4.1580165905E-01   -4.1493900283E-01   -4.1407991865E-01
-4.1322438437E-01   -4.1237237804E-01   -4.1152387787E-01   -4.1067886227E-01
-4.0983730981E-01   -4.0899919925E-01   -4.0816450952E-01   -4.0733321971E-01
-4.0650530910E-01   -4.0568075712E-01   -4.0485954337E-01   -4.0404164762E-01
-4.0322704980E-01   -4.0241573001E-01   -4.0160766849E-01   -4.0080284567E-01
-4.0000124210E-01   -3.9920283851E-01   -3.9840761577E-01   -3.9761555492E-01
-3.9682663714E-01   -3.9604084375E-01   -3.9525815622E-01   -3.9447855619E-01
-3.9370202541E-01   -3.9292854580E-01   -3.9215809940E-01   -3.9139066842E-01
-3.9062623518E-01   -3.8986478215E-01   -3.8910629194E-01   -3.8835074729E-01
-3.8759813108E-01   -3.8684842630E-01   -3.8610161610E-01   -3.8535768375E-01
-3.8461661264E-01   -3.8387838630E-01   -3.8314298839E-01   -3.8241040266E-01
-3.8168061304E-01   -3.8095360353E-01   -3.8022935828E-01   -3.7950786155E-01
-3.7878909774E-01   -3.7807305134E-01   -3.7735970697E-01   -3.7664904936E-01
-3.7594106336E-01   -3.7523573394E-01   -3.7453304617E-01   -3.7383298524E-01
-3.7313553644E-01   -3.7244068519E-01   -3.7174841699E-01   -3.7105871748E-01
-3.7037157238E-01   -3.6968696753E-01   -3.6900488886E-01   -3.6832532243E-01
-3.6764825437E-01   -3.6697367093E-01   -3.6630155847E-01   -3.6563190342E-01
-3.6496469234E-01   -3.6429991188E-01   -3.6363754877E-01   -3.6297758985E-01
-3.6232002206E-01   -3.6166483243E-01   -3.6101200807E-01   -3.6036153620E-01
-3.5971340414E-01   -3.5906759927E-01   -3.5842410909E-01   -3.5778292117E-01
-3.5714402318E-01   -3.5650740288E-01   -3.5587304810E-01   -3.5524094677E-01
-3.5461108692E-01   -3.5398345663E-01   -3.5335804409E-01   -3.5273483757E-01
-3.5211382541E-01   -3.5149499605E-01   -3.5087833799E-01   -3.5026383983E-01
-3.4965149025E-01   -3.4904127798E-01   -3.4843319187E-01   -3.4782722081E-01
-3.4722335380E-01   -3.4662157989E-01   -3.4602188823E-01   -3.4542426801E-01
-3.4482870853E-01   -3.4423519915E-01   -3.4364372930E-01   -3.4305428848E-01
-3.4246686627E-01   -3.4188145232E-01   -3.4129803636E-01   -3.4071660816E-01
-3.4013715758E-01   -3.3955967457E-01   -3.3898414910E-01   -3.3841057124E-01
-3.3783893113E-01   -3.3726921895E-01   -3.3670142499E-01   -3.3613553955E-01
-3.3557155304E-01   -3.3500945591E-01   -3.3444923869E-01   -3.3389089196E-01
</PP_LOCAL>
<PP_NONLOCAL>
<PP_BETA.1
type="real"
size="600"
columns="4"
index="1"
angular_momentum="0"
cutoff_radius_index=" 104"
cutoff_radius="    1.0300000000E+00" >
3.3081837159E-08    3.8801090494E-02    7.8462207829E-02    1.1982095700E-01
1.6367055110E-01    2.1073873627E-01    2.6166803749E-01    3.1699772589E-01
3.7714787499E-01    4.4240583332E-01    5.1291539408E-01    5.8866889096E-01
6.6950239254E-01    7.5509410808E-01    8.4496605544E-01    9.3848897886E-01
1.0348904412E+00    1.1332659537E+00    1.2325929474E+00    1.3317473344E+00
1.4295223563E+00    1.5246493736E+00    1.6158202077E+00    1.7017106209E+00
1.7810044911E+00    1.8524182269E+00    1.9147249607E+00    1.9667780596E+00
2.0075335063E+00    2.0360707209E+00    2.0516114226E+00    2.0535361672E+00
2.0413982378E+00    2.0149346145E+00    1.9740738058E+00    1.9189403795E+00
1.8498560953E+00    1.7673376031E+00    1.6720907368E+00    1.5650014958E+00
1.4471238695E+00    1.3196647194E+00    1.1839659882E+00    1.0414845546E+00
8.9377009786E-01    7.4244137177E-01    5.8916131788E-01    4.3561146729E-01
2.8346609406E-01    1.3436658535E-01   -1.0103511855E-02   -1.4844232265E-01
-2.7925193324E-01   -4.0125874733E-01   -5.1333155927E-01   -6.1449703963E-01
-7.0395238082E-01   -7.8107490749E-01   -8.4542851718E-01   -8.9676688061E-01
-9.3503339529E-01   -9.6035795203E-01   -9.7305063715E-01   -9.7359255539E-01
-9.6262401625E-01   -9.4093037973E-01   -9.0942590527E-01   -8.6913598848E-01
-8.2117820333E-01   -7.6674259515E-01   -7.0707165198E-01   -6.4344060068E-01
-5.7713458898E-01   -5.0941742413E-01   -4.4150498414E-01   -3.7454481520E-01
-3.0959747807E-01   -2.4762016412E-01   -1.8945280554E-01   -1.3580690320E-01
-8.7257238099E-02   -4.4236572264E-02   -7.0333836752E-03    2.4207381469E-02
4.9480616984E-02    6.8914561807E-02    8.2761694023E-02    9.1387257266E-02
9.5255708837E-02    9.4915418924E-02    9.0981983083E-02    8.4120535523E-02
7.5027467972E-02    6.4411967621E-02    5.2977788128E-02    4.1405659269E-02
3.0336723901E-02    2.0357367265E-02    1.1991089572E-02    5.6303709337E-03
1.7927863400E-03    4.1834570964E-04    2.3603889395E-05   -1.0666644658E-05
0. 0. 0. 0.
0. 0. 0. 0.
0. 0. 0. 0.
0. 0. 0. 0.
0. 0. 0. 0.
0. 0. 0. 0.
0. 0. 0. 0.
0. 0. 0. 0.
0. 0. 0. 0.
0. 0. 0. 0.
0. 0. 0. 0.
0. 0. 0. 0.
0. 0. 0. 0.
0. 0. 0. 0.
0. 0. 0. 0.
0. 0. 0. 0.
0. 0. 0. 0.
0. 0. 0. 0.
0. 0. 0. 0.
0. 0. 0. 0.
0. 0. 0. 0.
0. 0. 0. 0.
0. 0. 0. 0.
0. 0. 0. 0.
0. 0. 0. 0.
0. 0. 0. 0.
0. 0. 0. 0.
0. 0. 0. 0.
0. 0. 0. 0.
0. 0. 0. 0.
0. 0. 0. 0.
0. 0. 0. 0.
0. 0. 0. 0.
0. 0. 0. 0.
0. 0. 0. 0.
0. 0. 0. 0.
0. 0. 0. 0.
0. 0. 0. 0.
0. 0. 0. 0.
0. 0. 0. 0.
0. 0. 0. 0.
0. 0. 0. 0.
0. 0. 0. 0.
0. 0. 0. 0.
0. 0. 0. 0.
0. 0. 0. 0.
0. 0. 0. 0.
0. 0. 0. 0.
0. 0. 0. 0.
0. 0. 0. 0.
0. 0. 0. 0.
0. 0. 0. 0.
0. 0. 0. 0.
0. 0. 0. 0.
0. 0. 0. 0.
0. 0. 0. 0.
0. 0. 0. 0.
0. 0. 0. 0.
0. 0. 0. 0.
0. 0. 0. 0.
0. 0. 0. 0.
0. 0. 0. 0.
0. 0. 0. 0.
0. 0. 0. 0.
0. 0. 0. 0.
0. 0. 0. 0.
0. 0. 0. 0.
0. 0. 0. 0.
0. 0. 0. 0.
0. 0. 0. 0.
0. 0. 0. 0.
0. 0. 0. 0.
0. 0. 0. 0.
0. 0. 0. 0.
0. 0. 0. 0.
0. 0. 0. 0.
0. 0. 0. 0.
0. 0. 0. 0.
0. 0. 0. 0.
0. 0. 0. 0.
0. 0. 0. 0.
0. 0. 0. 0.
0. 0. 0. 0.
0. 0. 0. 0.
0. 0. 0. 0.
0. 0. 0. 0.
0. 0. 0. 0.
0. 0. 0. 0.
0. 0. 0. 0.
0. 0. 0. 0.
0. 0. 0. 0.
0. 0. 0. 0.
0. 0. 0. 0.
0. 0. 0. 0.
0. 0. 0. 0.
0. 0. 0. 0.
0. 0. 0. 0.
0. 0. 0. 0.
0. 0. 0. 0.
0. 0. 0. 0.
0. 0. 0. 0.
0. 0. 0. 0.
0. 0. 0. 0.
0. 0. 0. 0.
0. 0. 0. 0.
0. 0. 0. 0.
0. 0. 0. 0.
0. 0. 0. 0.
0. 0. 0. 0.
0. 0. 0. 0.
0. 0. 0. 0.
0. 0. 0. 0.
0. 0. 0. 0.
0. 0. 0. 0.
0. 0. 0. 0.
0. 0. 0. 0.
0. 0. 0. 0.
0. 0. 0. 0.
0. 0. 0. 0.
0. 0. 0. 0.
0. 0. 0. 0.
0. 0. 0. 0.
0. 0. 0. 0.
0. 0. 0. 0.
</PP_BETA.1>
<PP_BETA.2
type="real"
size="600"
columns="4"
index="2"
angular_momentum="0"
cutoff_radius_index=" 104"
cutoff_radius="    1.0300000000E+00" >
-5.2646526361E-08    1.0206983163E-01    2.0241542828E-01    2.9934822009E-01
3.9125025752E-01    4.7660776023E-01    5.5404259115E-01    6.2234102695E-01
6.8047924944E-01    7.2764504590E-01    7.6325528027E-01    7.8696877992E-01
7.9869437185E-01    7.9859389725E-01    7.8708013162E-01    7.6480963711E-01
7.3267067382E-01    6.9176639348E-01    6.4339363208E-01    5.8901770533E-01
5.3024368965E-01    4.6878474215E-01    4.0642807201E-01    3.4499922375E-01
2.8632536785E-01    2.3219831543E-01    1.8433798175E-01    1.4435701642E-01
1.1372729806E-01    9.3748956857E-02    8.5522541380E-02    8.9924886751E-02