<UPF version="2.0.1">
<PP_INFO>
NOTE!!!!
This file is trimmed with a mesh size of 600 from the original version.
Trimming performed at 2023-03-31 09:10:04.886356 by trim_upf.py version 0.1.0

This pseudopotential file has been produced using the code
ONCVPSP  (Optimized Norm-Conservinng Vanderbilt PSeudopotential)
scalar-relativistic version 3.3.0 08/16/2017 by D. R. Hamann
The code is available through a link at URL www.mat-simresearch.com.
Documentation with the package provides a full discription of the
input data below.
While it is not required under the terms of the GNU GPL, it is
suggested that you cite D. R. Hamann, Phys. Rev. B 88, 085117 (2013)
in any publication using these pseudopotentials.
<PP_INPUTFILE>
# ATOM AND REFERENCE CONFIGURATION
# atsym  z   nc   nv     iexc    psfile
Hf 72.00   10    4       4      upf
#
#   n    l    f        energy (Ha)
1    0    2.00
2    0    2.00
2    1    6.00
3    0    2.00
3    1    6.00
3    2   10.00
4    0    2.00
4    1    6.00
4    2   10.00
4    3   14.00
5    0    2.00
5    1    6.00
5    2    2.00
6    0    2.00
#
# PSEUDOPOTENTIAL AND OPTIMIZATION
# lmax
3
#
#   l,   rc,      ep,       ncon, nbas, qcut
0   1.70000  -2.46280    4    8   7.00000
1   1.70000  -1.30732    4    8   7.40000
2   1.70000  -0.09882    4    9   6.60000
3   2.40000   0.50000    4    8   6.80000
#
# LOCAL POTENTIAL
# lloc, lpopt,  rc(5),   dvloc0
4    5   1.70000      0.00000
#
# VANDERBILT-KLEINMAN-BYLANDER PROJECTORs
# l, nproj, debl
0    2   2.27507
1    2   1.50000
2    2   1.80000
3    2   2.50000
#
# MODEL CORE CHARGE
# icmod, fcfact, rcfact
3   5.40000   1.36000
#
# LOG DERIVATIVE ANALYSIS
# epsh1, epsh2, depsh
-12.00   12.00    0.02
#
# OUTPUT GRID
# rlmax, drl
6.00    0.01
#
# TEST CONFIGURATIONS
# ncnf
0
# nvcnf
#   n    l    f
</PP_INPUTFILE>
</PP_INFO>
<!--                               -->
<!-- END OF HUMAN READABLE SECTION -->
<!--                               -->
<PP_HEADER
generated="Generated using ONCVPSP code by D. R. Hamann"
author="anonymous"
date="171031"
comment=""
element="Hf"
pseudo_type="NC"
relativistic="scalar"
is_ultrasoft="F"
is_paw="F"
is_coulomb="F"
has_so="F"
has_wfc="F"
has_gipaw="F"
core_correction="T"
functional="PBE"
z_valence="   12.00"
total_psenergy="  -9.96320343674E+01"
rho_cutoff="   1.65500000000E+01"
l_max="3"
l_local="-1"
mesh_size="   600"
number_of_wfc="4"
number_of_proj="8"/>
<PP_MESH>
<PP_R type="real"  size="600" columns="8">
0.0000    0.0100    0.0200    0.0300    0.0400    0.0500    0.0600    0.0700
0.0800    0.0900    0.1000    0.1100    0.1200    0.1300    0.1400    0.1500
0.1600    0.1700    0.1800    0.1900    0.2000    0.2100    0.2200    0.2300
0.2400    0.2500    0.2600    0.2700    0.2800    0.2900    0.3000    0.3100
0.3200    0.3300    0.3400    0.3500    0.3600    0.3700    0.3800    0.3900
0.4000    0.4100    0.4200    0.4300    0.4400    0.4500    0.4600    0.4700
0.4800    0.4900    0.5000    0.5100    0.5200    0.5300    0.5400    0.5500
0.5600    0.5700    0.5800    0.5900    0.6000    0.6100    0.6200    0.6300
0.6400    0.6500    0.6600    0.6700    0.6800    0.6900    0.7000    0.7100
0.7200    0.7300    0.7400    0.7500    0.7600    0.7700    0.7800    0.7900
0.8000    0.8100    0.8200    0.8300    0.8400    0.8500    0.8600    0.8700
0.8800    0.8900    0.9000    0.9100    0.9200    0.9300    0.9400    0.9500
0.9600    0.9700    0.9800    0.9900    1.0000    1.0100    1.0200    1.0300
1.0400    1.0500    1.0600    1.0700    1.0800    1.0900    1.1000    1.1100
1.1200    1.1300    1.1400    1.1500    1.1600    1.1700    1.1800    1.1900
1.2000    1.2100    1.2200    1.2300    1.2400    1.2500    1.2600    1.2700
1.2800    1.2900    1.3000    1.3100    1.3200    1.3300    1.3400    1.3500
1.3600    1.3700    1.3800    1.3900    1.4000    1.4100    1.4200    1.4300
1.4400    1.4500    1.4600    1.4700    1.4800    1.4900    1.5000    1.5100
1.5200    1.5300    1.5400    1.5500    1.5600    1.5700    1.5800    1.5900
1.6000    1.6100    1.6200    1.6300    1.6400    1.6500    1.6600    1.6700
1.6800    1.6900    1.7000    1.7100    1.7200    1.7300    1.7400    1.7500
1.7600    1.7700    1.7800    1.7900    1.8000    1.8100    1.8200    1.8300
1.8400    1.8500    1.8600    1.8700    1.8800    1.8900    1.9000    1.9100
1.9200    1.9300    1.9400    1.9500    1.9600    1.9700    1.9800    1.9900
2.0000    2.0100    2.0200    2.0300    2.0400    2.0500    2.0600    2.0700
2.0800    2.0900    2.1000    2.1100    2.1200    2.1300    2.1400    2.1500
2.1600    2.1700    2.1800    2.1900    2.2000    2.2100    2.2200    2.2300
2.2400    2.2500    2.2600    2.2700    2.2800    2.2900    2.3000    2.3100
2.3200    2.3300    2.3400    2.3500    2.3600    2.3700    2.3800    2.3900
2.4000    2.4100    2.4200    2.4300    2.4400    2.4500    2.4600    2.4700
2.4800    2.4900    2.5000    2.5100    2.5200    2.5300    2.5400    2.5500
2.5600    2.5700    2.5800    2.5900    2.6000    2.6100    2.6200    2.6300
2.6400    2.6500    2.6600    2.6700    2.6800    2.6900    2.7000    2.7100
2.7200    2.7300    2.7400    2.7500    2.7600    2.7700    2.7800    2.7900
2.8000    2.8100    2.8200    2.8300    2.8400    2.8500    2.8600    2.8700
2.8800    2.8900    2.9000    2.9100    2.9200    2.9300    2.9400    2.9500
2.9600    2.9700    2.9800    2.9900    3.0000    3.0100    3.0200    3.0300
3.0400    3.0500    3.0600    3.0700    3.0800    3.0900    3.1000    3.1100
3.1200    3.1300    3.1400    3.1500    3.1600    3.1700    3.1800    3.1900
3.2000    3.2100    3.2200    3.2300    3.2400    3.2500    3.2600    3.2700
3.2800    3.2900    3.3000    3.3100    3.3200    3.3300    3.3400    3.3500
3.3600    3.3700    3.3800    3.3900    3.4000    3.4100    3.4200    3.4300
3.4400    3.4500    3.4600    3.4700    3.4800    3.4900    3.5000    3.5100
3.5200    3.5300    3.5400    3.5500    3.5600    3.5700    3.5800    3.5900
3.6000    3.6100    3.6200    3.6300    3.6400    3.6500    3.6600    3.6700
3.6800    3.6900    3.7000    3.7100    3.7200    3.7300    3.7400    3.7500
3.7600    3.7700    3.7800    3.7900    3.8000    3.8100    3.8200    3.8300
3.8400    3.8500    3.8600    3.8700    3.8800    3.8900    3.9000    3.9100
3.9200    3.9300    3.9400    3.9500    3.9600    3.9700    3.9800    3.9900
4.0000    4.0100    4.0200    4.0300    4.0400    4.0500    4.0600    4.0700
4.0800    4.0900    4.1000    4.1100    4.1200    4.1300    4.1400    4.1500
4.1600    4.1700    4.1800    4.1900    4.2000    4.2100    4.2200    4.2300
4.2400    4.2500    4.2600    4.2700    4.2800    4.2900    4.3000    4.3100
4.3200    4.3300    4.3400    4.3500    4.3600    4.3700    4.3800    4.3900
4.4000    4.4100    4.4200    4.4300    4.4400    4.4500    4.4600    4.4700
4.4800    4.4900    4.5000    4.5100    4.5200    4.5300    4.5400    4.5500
4.5600    4.5700    4.5800    4.5900    4.6000    4.6100    4.6200    4.6300
4.6400    4.6500    4.6600    4.6700    4.6800    4.6900    4.7000    4.7100
4.7200    4.7300    4.7400    4.7500    4.7600    4.7700    4.7800    4.7900
4.8000    4.8100    4.8200    4.8300    4.8400    4.8500    4.8600    4.8700
4.8800    4.8900    4.9000    4.9100    4.9200    4.9300    4.9400    4.9500
4.9600    4.9700    4.9800    4.9900    5.0000    5.0100    5.0200    5.0300
5.0400    5.0500    5.0600    5.0700    5.0800    5.0900    5.1000    5.1100
5.1200    5.1300    5.1400    5.1500    5.1600    5.1700    5.1800    5.1900
5.2000    5.2100    5.2200    5.2300    5.2400    5.2500    5.2600    5.2700
5.2800    5.2900    5.3000    5.3100    5.3200    5.3300    5.3400    5.3500
5.3600    5.3700    5.3800    5.3900    5.4000    5.4100    5.4200    5.4300
5.4400    5.4500    5.4600    5.4700    5.4800    5.4900    5.5000    5.5100
5.5200    5.5300    5.5400    5.5500    5.5600    5.5700    5.5800    5.5900
5.6000    5.6100    5.6200    5.6300    5.6400    5.6500    5.6600    5.6700
5.6800    5.6900    5.7000    5.7100    5.7200    5.7300    5.7400    5.7500
5.7600    5.7700    5.7800    5.7900    5.8000    5.8100    5.8200    5.8300
5.8400    5.8500    5.8600    5.8700    5.8800    5.8900    5.9000    5.9100
5.9200    5.9300    5.9400    5.9500    5.9600    5.9700    5.9800    5.9900
</PP_R>
<PP_RAB type="real"  size="600" columns="8">
0.0100    0.0100    0.0100    0.0100    0.0100    0.0100    0.0100    0.0100
0.0100    0.0100    0.0100    0.0100    0.0100    0.0100    0.0100    0.0100
0.0100    0.0100    0.0100    0.0100    0.0100    0.0100    0.0100    0.0100
0.0100    0.0100    0.0100    0.0100    0.0100    0.0100    0.0100    0.0100
0.0100    0.0100    0.0100    0.0100    0.0100    0.0100    0.0100    0.0100
0.0100    0.0100    0.0100    0.0100    0.0100    0.0100    0.0100    0.0100
0.0100    0.0100    0.0100    0.0100    0.0100    0.0100    0.0100    0.0100
0.0100    0.0100    0.0100    0.0100    0.0100    0.0100    0.0100    0.0100
0.0100    0.0100    0.0100    0.0100    0.0100    0.0100    0.0100    0.0100
0.0100    0.0100    0.0100    0.0100    0.0100    0.0100    0.0100    0.0100
0.0100    0.0100    0.0100    0.0100    0.0100    0.0100    0.0100    0.0100
0.0100    0.0100    0.0100    0.0100    0.0100    0.0100    0.0100    0.0100
0.0100    0.0100    0.0100    0.0100    0.0100    0.0100    0.0100    0.0100
0.0100    0.0100    0.0100    0.0100    0.0100    0.0100    0.0100    0.0100
0.0100    0.0100    0.0100    0.0100    0.0100    0.0100    0.0100    0.0100
0.0100    0.0100    0.0100    0.0100    0.0100    0.0100    0.0100    0.0100
0.0100    0.0100    0.0100    0.0100    0.0100    0.0100    0.0100    0.0100
0.0100    0.0100    0.0100    0.0100    0.0100    0.0100    0.0100    0.0100
0.0100    0.0100    0.0100    0.0100    0.0100    0.0100    0.0100    0.0100
0.0100    0.0100    0.0100    0.0100    0.0100    0.0100    0.0100    0.0100
0.0100    0.0100    0.0100    0.0100    0.0100    0.0100    0.0100    0.0100
0.0100    0.0100    0.0100    0.0100    0.0100    0.0100    0.0100    0.0100
0.0100    0.0100    0.0100    0.0100    0.0100    0.0100    0.0100    0.0100
0.0100    0.0100    0.0100    0.0100    0.0100    0.0100    0.0100    0.0100
0.0100    0.0100    0.0100    0.0100    0.0100    0.0100    0.0100    0.0100
0.0100    0.0100    0.0100    0.0100    0.0100    0.0100    0.0100    0.0100
0.0100    0.0100    0.0100    0.0100    0.0100    0.0100    0.0100    0.0100
0.0100    0.0100    0.0100    0.0100    0.0100    0.0100    0.0100    0.0100
0.0100    0.0100    0.0100    0.0100    0.0100    0.0100    0.0100    0.0100
0.0100    0.0100    0.0100    0.0100    0.0100    0.0100    0.0100    0.0100
0.0100    0.0100    0.0100    0.0100    0.0100    0.0100    0.0100    0.0100
0.0100    0.0100    0.0100    0.0100    0.0100    0.0100    0.0100    0.0100
0.0100    0.0100    0.0100    0.0100    0.0100    0.0100    0.0100    0.0100
0.0100    0.0100    0.0100    0.0100    0.0100    0.0100    0.0100    0.0100
0.0100    0.0100    0.0100    0.0100    0.0100    0.0100    0.0100    0.0100
0.0100    0.0100    0.0100    0.0100    0.0100    0.0100    0.0100    0.0100
0.0100    0.0100    0.0100    0.0100    0.0100    0.0100    0.0100    0.0100
0.0100    0.0100    0.0100    0.0100    0.0100    0.0100    0.0100    0.0100
0.0100    0.0100    0.0100    0.0100    0.0100    0.0100    0.0100    0.0100
0.0100    0.0100    0.0100    0.0100    0.0100    0.0100    0.0100    0.0100
0.0100    0.0100    0.0100    0.0100    0.0100    0.0100    0.0100    0.0100
0.0100    0.0100    0.0100    0.0100    0.0100    0.0100    0.0100    0.0100
0.0100    0.0100    0.0100    0.0100    0.0100    0.0100    0.0100    0.0100
0.0100    0.0100    0.0100    0.0100    0.0100    0.0100    0.0100    0.0100
0.0100    0.0100    0.0100    0.0100    0.0100    0.0100    0.0100    0.0100
0.0100    0.0100    0.0100    0.0100    0.0100    0.0100    0.0100    0.0100
0.0100    0.0100    0.0100    0.0100    0.0100    0.0100    0.0100    0.0100
0.0100    0.0100    0.0100    0.0100    0.0100    0.0100    0.0100    0.0100
0.0100    0.0100    0.0100    0.0100    0.0100    0.0100    0.0100    0.0100
0.0100    0.0100    0.0100    0.0100    0.0100    0.0100    0.0100    0.0100
0.0100    0.0100    0.0100    0.0100    0.0100    0.0100    0.0100    0.0100
0.0100    0.0100    0.0100    0.0100    0.0100    0.0100    0.0100    0.0100
0.0100    0.0100    0.0100    0.0100    0.0100    0.0100    0.0100    0.0100
0.0100    0.0100    0.0100    0.0100    0.0100    0.0100    0.0100    0.0100
0.0100    0.0100    0.0100    0.0100    0.0100    0.0100    0.0100    0.0100
0.0100    0.0100    0.0100    0.0100    0.0100    0.0100    0.0100    0.0100
0.0100    0.0100    0.0100    0.0100    0.0100    0.0100    0.0100    0.0100
0.0100    0.0100    0.0100    0.0100    0.0100    0.0100    0.0100    0.0100
0.0100    0.0100    0.0100    0.0100    0.0100    0.0100    0.0100    0.0100
0.0100    0.0100    0.0100    0.0100    0.0100    0.0100    0.0100    0.0100
0.0100    0.0100    0.0100    0.0100    0.0100    0.0100    0.0100    0.0100
0.0100    0.0100    0.0100    0.0100    0.0100    0.0100    0.0100    0.0100
0.0100    0.0100    0.0100    0.0100    0.0100    0.0100    0.0100    0.0100
0.0100    0.0100    0.0100    0.0100    0.0100    0.0100    0.0100    0.0100
0.0100    0.0100    0.0100    0.0100    0.0100    0.0100    0.0100    0.0100
0.0100    0.0100    0.0100    0.0100    0.0100    0.0100    0.0100    0.0100
0.0100    0.0100    0.0100    0.0100    0.0100    0.0100    0.0100    0.0100
0.0100    0.0100    0.0100    0.0100    0.0100    0.0100    0.0100    0.0100
0.0100    0.0100    0.0100    0.0100    0.0100    0.0100    0.0100    0.0100
0.0100    0.0100    0.0100    0.0100    0.0100    0.0100    0.0100    0.0100
0.0100    0.0100    0.0100    0.0100    0.0100    0.0100    0.0100    0.0100
0.0100    0.0100    0.0100    0.0100    0.0100    0.0100    0.0100    0.0100
0.0100    0.0100    0.0100    0.0100    0.0100    0.0100    0.0100    0.0100
0.0100    0.0100    0.0100    0.0100    0.0100    0.0100    0.0100    0.0100
0.0100    0.0100    0.0100    0.0100    0.0100    0.0100    0.0100    0.0100
</PP_RAB>
</PP_MESH>
<PP_LOCAL type="real"  size="600" columns="4">
-3.0274652465E+01   -3.0273835852E+01   -3.0271385943E+01   -3.0267302635E+01
-3.0261585748E+01   -3.0254235028E+01   -3.0245250150E+01   -3.0234630715E+01
-3.0222376253E+01   -3.0208486225E+01   -3.0192960019E+01   -3.0175796955E+01
-3.0156996287E+01   -3.0136557203E+01   -3.0114478826E+01   -3.0090760222E+01
-3.0065400397E+01   -3.0038398306E+01   -3.0009752857E+01   -2.9979462913E+01
-2.9947527306E+01   -2.9913944836E+01   -2.9878714285E+01   -2.9841834426E+01
-2.9803304029E+01   -2.9763121880E+01   -2.9721286788E+01   -2.9677797600E+01
-2.9632653216E+01   -2.9585852609E+01   -2.9537394835E+01   -2.9487279057E+01
-2.9435504563E+01   -2.9382070785E+01   -2.9326977323E+01   -2.9270223964E+01
-2.9211810708E+01   -2.9151737792E+01   -2.9090005712E+01   -2.9026615251E+01
-2.8961567504E+01   -2.8894863905E+01   -2.8826506253E+01   -2.8756496738E+01
-2.8684837972E+01   -2.8611533013E+01   -2.8536585392E+01   -2.8459999145E+01
-2.8381778834E+01   -2.8301929580E+01   -2.8220457086E+01   -2.8137367663E+01
-2.8052668261E+01   -2.7966366489E+01   -2.7878470643E+01   -2.7788989732E+01
-2.7697933497E+01   -2.7605312441E+01   -2.7511137847E+01   -2.7415421801E+01
-2.7318177215E+01   -2.7219417847E+01   -2.7119158319E+01   -2.7017414138E+01
-2.6914201711E+01   -2.6809538368E+01   -2.6703442371E+01   -2.6595932933E+01
-2.6487030229E+01   -2.6376755412E+01   -2.6265130619E+01   -2.6152178985E+01
-2.6037924647E+01   -2.5922392753E+01   -2.5805609463E+01   -2.5687601953E+01
-2.5568398414E+01   -2.5448028049E+01   -2.5326521067E+01   -2.5203908678E+01
-2.5080223080E+01   -2.4955497443E+01   -2.4829765899E+01   -2.4703063517E+01
-2.4575426278E+01   -2.4446891058E+01   -2.4317495587E+01   -2.4187278427E+01
-2.4056278927E+01   -2.3924537191E+01   -2.3792094032E+01   -2.3658990929E+01
-2.3525269978E+01   -2.3390973843E+01   -2.3256145704E+01   -2.3120829200E+01
-2.2985068376E+01   -2.2848907623E+01   -2.2712391617E+01   -2.2575565262E+01
-2.2438473626E+01   -2.2301161882E+01   -2.2163675242E+01   -2.2026058898E+01
-2.1888357959E+01   -2.1750617388E+01   -2.1612881943E+01   -2.1475196114E+01
-2.1337604065E+01   -2.1200149575E+01   -2.1062875980E+01   -2.0925826114E+01
-2.0789042257E+01   -2.0652566077E+01   -2.0516438578E+01   -2.0380700049E+01
-2.0245390009E+01   -2.0110547160E+01   -1.9976209336E+01   -1.9842413458E+01
-1.9709195482E+01   -1.9576590358E+01   -1.9444631982E+01   -1.9313353158E+01
-1.9182785549E+01   -1.9052959641E+01   -1.8923904707E+01   -1.8795648766E+01
-1.8668218551E+01   -1.8541639477E+01   -1.8415935615E+01   -1.8291129664E+01
-1.8167242933E+01   -1.8044295322E+01   -1.7922305313E+01   -1.7801289961E+01
-1.7681264895E+01   -1.7562244325E+01   -1.7444241049E+01   -1.7327266481E+01
-1.7211330667E+01   -1.7096442326E+01   -1.6982608888E+01   -1.6869836539E+01
-1.6758130274E+01   -1.6647493960E+01   -1.6537930393E+01   -1.6429441369E+01
-1.6322027753E+01   -1.6215689545E+01   -1.6110425955E+01   -1.6006235467E+01
-1.5903115899E+01   -1.5801064466E+01   -1.5700077824E+01   -1.5600152113E+01
-1.5501282983E+01   -1.5403465611E+01   -1.5306694708E+01   -1.5210964504E+01
-1.5116268725E+01   -1.5022600556E+01   -1.4929952585E+01   -1.4838316740E+01
-1.4747684185E+01   -1.4658045326E+01   -1.4569389683E+01   -1.4481705603E+01
-1.4394980354E+01   -1.4309199601E+01   -1.4224348350E+01   -1.4140413692E+01
-1.4057385623E+01   -1.3975261048E+01   -1.3894043989E+01   -1.3813730063E+01
-1.3734299382E+01   -1.3655731675E+01   -1.3578013572E+01   -1.3501131816E+01
-1.3425072013E+01   -1.3349820427E+01   -1.3275363555E+01   -1.3201688134E+01
-1.3128781202E+01   -1.3056630084E+01   -1.2985222391E+01   -1.2914546032E+01
-1.2844589238E+01   -1.2775340573E+01   -1.2706788953E+01   -1.2638923660E+01
-1.2571734359E+01   -1.2505211105E+01   -1.2439344362E+01   -1.2374124999E+01
-1.2309544300E+01   -1.2245593960E+01   -1.2182266079E+01   -1.2119553155E+01
-1.2057448068E+01   -1.1995944062E+01   -1.1935034728E+01   -1.1874713976E+01
-1.1814976011E+01   -1.1755815302E+01   -1.1697226552E+01   -1.1639204667E+01
-1.1581744725E+01   -1.1524841941E+01   -1.1468491638E+01   -1.1412689214E+01
-1.1357430116E+01   -1.1302709809E+01   -1.1248523750E+01   -1.1194867368E+01
-1.1141736039E+01   -1.1089125069E+01   -1.1037029678E+01   -1.0985444984E+01
-1.0934365994E+01   -1.0883787594E+01   -1.0833704542E+01   -1.0784111466E+01
-1.0735002860E+01   -1.0686373084E+01   -1.0638216366E+01   -1.0590526806E+01
-1.0543298383E+01   -1.0496524960E+01   -1.0450200290E+01   -1.0404318029E+01
-1.0358871748E+01   -1.0313854938E+01   -1.0269261029E+01   -1.0225083398E+01
-1.0181315388E+01   -1.0137950318E+01   -1.0094981498E+01   -1.0052402245E+01
-1.0010205901E+01   -9.9683858402E+00   -9.9269354917E+00   -9.8858483496E+00
-9.8451179887E+00   -9.8047380782E+00   -9.7647023944E+00   -9.7250048336E+00
-9.6856394235E+00   -9.6466003336E+00   -9.6078818851E+00   -9.5694785593E+00
-9.5313850048E+00   -9.4935960436E+00   -9.4561066763E+00   -9.4189120851E+00
-9.3820076364E+00   -9.3453888820E+00   -9.3090515579E+00   -9.2729915841E+00
-9.2372050610E+00   -9.2016882661E+00   -9.1664376492E+00   -9.1314498269E+00
-9.0967215758E+00   -9.0622498259E+00   -9.0280316522E+00   -8.9940642671E+00
-8.9603450113E+00   -8.9268713450E+00   -8.8936408390E+00   -8.8606511655E+00
-8.8279000887E+00   -8.7953854558E+00   -8.7631051887E+00   -8.7310572748E+00
-8.6992397586E+00   -8.6676507345E+00   -8.6362883387E+00   -8.6051507420E+00
-8.5742361435E+00   -8.5435427646E+00   -8.5130688426E+00   -8.4828126264E+00
-8.4527723715E+00   -8.4229463357E+00   -8.3933327754E+00   -8.3639299429E+00
-8.3347360831E+00   -8.3057494317E+00   -8.2769682128E+00   -8.2483906379E+00
-8.2200149048E+00   -8.1918391965E+00   -8.1638616814E+00   -8.1360805128E+00
-8.1084938293E+00   -8.0810997553E+00   -8.0538964019E+00   -8.0268818679E+00
-8.0000542405E+00   -7.9734115976E+00   -7.9469520085E+00   -7.9206735361E+00
-7.8945742387E+00   -7.8686521717E+00   -7.8429053897E+00   -7.8173319488E+00
-7.7919299086E+00   -7.7666973342E+00   -7.7416322988E+00   -7.7167328854E+00
-7.6919971893E+00   -7.6674233204E+00   -7.6430094048E+00   -7.6187535871E+00
-7.5946540325E+00   -7.5707089286E+00   -7.5469164868E+00   -7.5232749448E+00
-7.4997825672E+00   -7.4764376478E+00   -7.4532385104E+00   -7.4301835101E+00
-7.4072710343E+00   -7.3844995039E+00   -7.3618673738E+00   -7.3393731332E+00
-7.3170153067E+00   -7.2947924542E+00   -7.2727031711E+00   -7.2507460885E+00
-7.2289198728E+00   -7.2072232255E+00   -7.1856548833E+00   -7.1642136165E+00
-7.1428982294E+00   -7.1217075592E+00   -7.1006404748E+00   -7.0796958762E+00
-7.0588726932E+00   -7.0381698845E+00   -7.0175864363E+00   -6.9971213610E+00
-6.9767736960E+00   -6.9565425020E+00   -6.9364268620E+00   -6.9164258796E+00
-6.8965386775E+00   -6.8767643960E+00   -6.8571021918E+00   -6.8375512362E+00
-6.8181107141E+00   -6.7987798218E+00   -6.7795577666E+00   -6.7604437648E+00
-6.7414370407E+00   -6.7225368253E+00   -6.7037423552E+00   -6.6850528715E+00
-6.6664676189E+00   -6.6479858447E+00   -6.6296067979E+00   -6.6113297285E+00
-6.5931538872E+00   -6.5750785243E+00   -6.5571028894E+00   -6.5392262314E+00
-6.5214477978E+00   -6.5037668346E+00   -6.4861825865E+00   -6.4686942962E+00
-6.4513012053E+00   -6.4340025540E+00   -6.4167975814E+00   -6.3996855255E+00
-6.3826656241E+00   -6.3657371150E+00   -6.3488992362E+00   -6.3321512267E+00
-6.3154923270E+00   -6.2989217796E+00   -6.2824388296E+00   -6.2660427254E+00
-6.2497327193E+00   -6.2335080683E+00   -6.2173680342E+00   -6.2013118849E+00
-6.1853388946E+00   -6.1694483446E+00   -6.1536395237E+00   -6.1379117289E+00
-6.1222642655E+00   -6.1066964486E+00   -6.0912076022E+00   -6.0757970606E+00
-6.0604641674E+00   -6.0452082774E+00   -6.0300287580E+00   -6.0149249859E+00
-5.9998963490E+00   -5.9849422753E+00   -5.9700621466E+00   -5.9552553592E+00
-5.9405213380E+00   -5.9258595274E+00   -5.9112691669E+00   -5.8967500227E+00
-5.8823016920E+00   -5.8679237270E+00   -5.8536156730E+00   -5.8393775882E+00
-5.8252079540E+00   -5.8111058864E+00   -5.7970705426E+00   -5.7831010318E+00
-5.7691960247E+00   -5.7553564017E+00   -5.7415822569E+00   -5.7278737534E+00
-5.7142311892E+00   -5.7006552013E+00   -5.6871447463E+00   -5.6736993768E+00
-5.6603185401E+00   -5.6470015787E+00   -5.6337476563E+00   -5.6205563268E+00
-5.6074269567E+00   -5.5943589265E+00   -5.5813516414E+00   -5.5684043754E+00
-5.5555168565E+00   -5.5426886791E+00   -5.5299194709E+00   -5.5172088815E+00
-5.5045567053E+00   -5.4919624508E+00   -5.4794257027E+00   -5.4669460647E+00
-5.4545231389E+00   -5.4421565023E+00   -5.4298457776E+00   -5.4175906004E+00
-5.4053905951E+00   -5.3932453898E+00   -5.3811546170E+00   -5.3691179122E+00
-5.3571349119E+00   -5.3452052573E+00   -5.3333285925E+00   -5.3215045650E+00
-5.3097328254E+00   -5.2980130275E+00   -5.2863448280E+00   -5.2747278867E+00
-5.2631618664E+00   -5.2516464330E+00   -5.2401812550E+00   -5.2287660043E+00
-5.2174003551E+00   -5.2060839850E+00   -5.1948165740E+00   -5.1835978050E+00
-5.1724273637E+00   -5.1613049385E+00   -5.1502302205E+00   -5.1392029034E+00
-5.1282226836E+00   -5.1172892599E+00   -5.1064023341E+00   -5.0955616100E+00
-5.0847667944E+00   -5.0740175963E+00   -5.0633137272E+00   -5.0526549013E+00
-5.0420408347E+00   -5.0314712464E+00   -5.0209458574E+00   -5.0104643913E+00
-5.0000265739E+00   -4.9896321331E+00   -4.9792807994E+00   -4.9689723054E+00
-4.9587063857E+00   -4.9484827775E+00   -4.9383012197E+00   -4.9281614539E+00
-4.9180632232E+00   -4.9080062734E+00   -4.8979903519E+00   -4.8880152085E+00
-4.8780805947E+00   -4.8681862645E+00   -4.8583319733E+00   -4.8485174790E+00
-4.8387425411E+00   -4.8290069213E+00   -4.8193103829E+00   -4.8096526915E+00
-4.8000336142E+00   -4.7904529201E+00   -4.7809103803E+00   -4.7714057675E+00
-4.7619388562E+00   -4.7525094229E+00   -4.7431172456E+00   -4.7337621042E+00
-4.7244437804E+00   -4.7151620574E+00   -4.7059167203E+00   -4.6967075558E+00
-4.6875343522E+00   -4.6783968995E+00   -4.6692949894E+00   -4.6602284152E+00
-4.6511969717E+00   -4.6422004553E+00   -4.6332386641E+00   -4.6243113975E+00
-4.6154184568E+00   -4.6065596445E+00   -4.5977347648E+00   -4.5889436233E+00
-4.5801860271E+00   -4.5714617848E+00   -4.5627707064E+00   -4.5541126034E+00
-4.5454872887E+00   -4.5368945765E+00   -4.5283342827E+00   -4.5198062241E+00
-4.5113102194E+00   -4.5028460883E+00   -4.4944136520E+00   -4.4860127329E+00
-4.4776431550E+00   -4.4693047433E+00   -4.4609973242E+00   -4.4527207254E+00
-4.4444747760E+00   -4.4362593061E+00   -4.4280741473E+00   -4.4199191322E+00
-4.4117940948E+00   -4.4036988703E+00   -4.3956332951E+00   -4.3875972067E+00
-4.3795904438E+00   -4.3716128463E+00   -4.3636642555E+00   -4.3557445134E+00
-4.3478534634E+00   -4.3399909500E+00   -4.3321568189E+00   -4.3243509168E+00
-4.3165730915E+00   -4.3088231918E+00   -4.3011010679E+00   -4.2934065707E+00
-4.2857395524E+00   -4.2780998662E+00   -4.2704873662E+00   -4.2629019078E+00
-4.2553433472E+00   -4.2478115416E+00   -4.2403063494E+00   -4.2328276299E+00
-4.2253752434E+00   -4.2179490510E+00   -4.2105489151E+00   -4.2031746988E+00
-4.1958262663E+00   -4.1885034827E+00   -4.1812062139E+00   -4.1739343270E+00
-4.1666876898E+00   -4.1594661711E+00   -4.1522696406E+00   -4.1450979690E+00
-4.1379510276E+00   -4.1308286889E+00   -4.1237308262E+00   -4.1166573134E+00
-4.1096080257E+00   -4.1025828387E+00   -4.0955816293E+00   -4.0886042748E+00
-4.0816506537E+00   -4.0747206451E+00   -4.0678141290E+00   -4.0609309862E+00
-4.0540710982E+00   -4.0472343475E+00   -4.0404206172E+00   -4.0336297914E+00
-4.0268617547E+00   -4.0201163927E+00   -4.0133935916E+00   -4.0066932385E+00
</PP_LOCAL>
<PP_NONLOCAL>
<PP_BETA.1
type="real"
size="600"
columns="4"
index="1"
angular_momentum="0"
cutoff_radius_index=" 248"
cutoff_radius="    2.4700000000E+00" >
6.3995753141E-11    5.0609205273E-02    1.0116235297E-01    1.5160334901E-01
2.0187602777E-01    2.5192411983E-01    3.0169122387E-01    3.5112078416E-01
4.0015607477E-01    4.4874019169E-01    4.9681605408E-01    5.4432641538E-01
5.9121388543E-01    6.3742096412E-01    6.8289008724E-01    7.2756368498E-01
7.7138425342E-01    8.1429443906E-01    8.5623713640E-01    8.9715559848E-01
9.3699355990E-01    9.7569537189E-01    1.0132061488E+00    1.0494719251E+00
1.0844398220E+00    1.1180582228E+00    1.1502769551E+00    1.1810474794E+00
1.2103230820E+00    1.2380590711E+00    1.2642129741E+00    1.2887447348E+00
1.3116169086E+00    1.3327948538E+00    1.3522469180E+00    1.3699446167E+00
1.3858628038E+00    1.3999798305E+00    1.4122776935E+00    1.4227421680E+00
1.4313629270E+00    1.4381336435E+00    1.4430520748E+00    1.4461201291E+00
1.4473439114E+00    1.4467337502E+00    1.4443042021E+00    1.4400740360E+00
1.4340661950E+00    1.4263077373E+00    1.4168297548E+00    1.4056672710E+00
1.3928591183E+00    1.3784477949E+00    1.3624793025E+00    1.3450029660E+00
1.3260712366E+00    1.3057394786E+00    1.2840657423E+00    1.2611105247E+00
1.2369365190E+00    1.2116083549E+00    1.1851923324E+00    1.1577561500E+00
1.1293686297E+00    1.1000994407E+00    1.0700188244E+00    1.0391973221E+00
1.0077055071E+00    9.7561372388E-01    9.4299183617E-01    9.0990898468E-01
8.7643335736E-01    8.4263197299E-01    8.0857047974E-01    7.7431296985E-01
7.3992181160E-01    7.0545749943E-01    6.7097852291E-01    6.3654125514E-01
6.0219986095E-01    5.6800622493E-01    5.3400989935E-01    5.0025807176E-01
4.6679555159E-01    4.3366477551E-01    4.0090583029E-01    3.6855649261E-01
3.3665228436E-01    3.0522654227E-01    2.7431050043E-01    2.4393338420E-01
2.1412251372E-01    1.8490341543E-01    1.5629993977E-01    1.2833438310E-01
1.0102761214E-01    7.4399188961E-02    4.8467494637E-02    2.3249849808E-02
-1.2373696610E-03   -2.4978623604E-02   -4.7959106664E-02   -7.0164657060E-02
-9.1581676379E-02   -1.1219706159E-01   -1.3199815033E-01   -1.5097268033E-01
-1.6910876370E-01   -1.8639487653E-01   -2.0281986413E-01   -2.1837296203E-01
-2.3304383256E-01   -2.4682261680E-01   -2.5970000127E-01   -2.7166729875E-01
-2.8271654226E-01   -2.9284059106E-01   -3.0203324758E-01   -3.1028938358E-01
-3.1760507427E-01   -3.2397773847E-01   -3.2940628302E-01   -3.3389124971E-01
-3.3743496248E-01   -3.4004167310E-01   -3.4171770312E-01   -3.4247158013E-01
-3.4231416617E-01   -3.4125877643E-01   -3.3932128609E-01   -3.3652022370E-01
-3.3287684912E-01   -3.2841521445E-01   -3.2316220663E-01   -3.1714757011E-01
-3.1040390864E-01   -3.0296666536E-01   -2.9487408000E-01   -2.8616712329E-01
-2.7688940779E-01   -2.6708707529E-01   -2.5680866109E-01   -2.4610493528E-01
-2.3502872200E-01   -2.2363469735E-01   -2.1197916715E-01   -2.0011982603E-01
-1.8811549910E-01   -1.7602586834E-01   -1.6391118520E-01   -1.5183197204E-01
-1.3984871405E-01   -1.2802154459E-01   -1.1640992597E-01   -1.0507232852E-01
-9.4065910351E-02   -8.3446200628E-02   -7.3266788742E-02   -6.3579022365E-02
-5.4431716465E-02   -4.5870876389E-02   -3.7939436735E-02   -3.0677019019E-02
-2.4119709555E-02   -1.8299860227E-02   -1.3248104513E-02   -8.9854775205E-03
-5.5158860335E-03   -2.8812977721E-03   -1.1516913342E-03   -2.5348895589E-04
5.8345879968E-05    5.6858370481E-05   -1.4882158195E-05   -2.2296437620E-05
1.9107478605E-06    4.4167867430E-06    7.1945373707E-09    3.0595308640E-08
1.0175172591E-11    0.0000000000E+00    0.0000000000E+00    0.0000000000E+00
0.0000000000E+00    0.0000000000E+00    0.0000000000E+00    0.0000000000E+00
0.0000000000E+00    0.0000000000E+00    0.0000000000E+00    0.0000000000E+00
0.0000000000E+00    0.0000000000E+00    0.0000000000E+00    0.0000000000E+00
0.0000000000E+00    0.0000000000E+00    0.0000000000E+00    0.0000000000E+00
0.0000000000E+00    0.0000000000E+00    0.0000000000E+00    0.0000000000E+00