<UPF version="2.0.1">
<PP_INFO>
NOTE!!!!
This file is trimmed with a mesh size of 600 from the original version.
Trimming performed at 2023-03-31 09:10:04.978070 by trim_upf.py version 0.1.0

This pseudopotential file has been produced using the code
ONCVPSP  (Optimized Norm-Conservinng Vanderbilt PSeudopotential)
scalar-relativistic version 3.3.0 08/16/2017 by D. R. Hamann
The code is available through a link at URL www.mat-simresearch.com.
Documentation with the package provides a full discription of the
input data below.
While it is not required under the terms of the GNU GPL, it is
suggested that you cite D. R. Hamann, Phys. Rev. B 88, 085117 (2013)
in any publication using these pseudopotentials.
<PP_INPUTFILE>
# ATOM AND REFERENCE CONFIGURATION
# atsym  z   nc   nv     iexc    psfile
Hg 80.00   10    4       4      upf
#
#   n    l    f        energy (Ha)
1    0    2.00
2    0    2.00
2    1    6.00
3    0    2.00
3    1    6.00
3    2   10.00
4    0    2.00
4    1    6.00
4    2   10.00
4    3   14.00
5    0    2.00
5    1    6.00
5    2   10.00
6    0    2.00
#
# PSEUDOPOTENTIAL AND OPTIMIZATION
# lmax
3
#
#   l,   rc,      ep,       ncon, nbas, qcut
0   1.60000  -4.34313    4    8   8.00000
1   1.60000  -2.44441    4    8   8.20000
2   1.45000  -0.36236    4    8   8.80000
3   1.60000   0.10000    4    8   6.80000
#
# LOCAL POTENTIAL
# lloc, lpopt,  rc(5),   dvloc0
4    5   1.45000      0.00000
#
# VANDERBILT-KLEINMAN-BYLANDER PROJECTORs
# l, nproj, debl
0    2   4.09261
1    2   2.80000
2    2   1.80000
3    1   1.50000
#
# MODEL CORE CHARGE
# icmod, fcfact, rcfact
3   5.00000   1.37000
#
# LOG DERIVATIVE ANALYSIS
# epsh1, epsh2, depsh
-12.00   12.00    0.02
#
# OUTPUT GRID
# rlmax, drl
6.00    0.01
#
# TEST CONFIGURATIONS
# ncnf
0
# nvcnf
#   n    l    f
</PP_INPUTFILE>
</PP_INFO>
<!--                               -->
<!-- END OF HUMAN READABLE SECTION -->
<!--                               -->
<PP_HEADER
generated="Generated using ONCVPSP code by D. R. Hamann"
author="anonymous"
date="171031"
comment=""
element="Hg"
pseudo_type="NC"
relativistic="scalar"
is_ultrasoft="F"
is_paw="F"
is_coulomb="F"
has_so="F"
has_wfc="F"
has_gipaw="F"
core_correction="T"
functional="PBE"
z_valence="   20.00"
total_psenergy="  -3.12193242263E+02"
rho_cutoff="   1.26100000000E+01"
l_max="3"
l_local="-1"
mesh_size="   600"
number_of_wfc="4"
number_of_proj="7"/>
<PP_MESH>
<PP_R type="real"  size="600" columns="8">
0.0000    0.0100    0.0200    0.0300    0.0400    0.0500    0.0600    0.0700
0.0800    0.0900    0.1000    0.1100    0.1200    0.1300    0.1400    0.1500
0.1600    0.1700    0.1800    0.1900    0.2000    0.2100    0.2200    0.2300
0.2400    0.2500    0.2600    0.2700    0.2800    0.2900    0.3000    0.3100
0.3200    0.3300    0.3400    0.3500    0.3600    0.3700    0.3800    0.3900
0.4000    0.4100    0.4200    0.4300    0.4400    0.4500    0.4600    0.4700
0.4800    0.4900    0.5000    0.5100    0.5200    0.5300    0.5400    0.5500
0.5600    0.5700    0.5800    0.5900    0.6000    0.6100    0.6200    0.6300
0.6400    0.6500    0.6600    0.6700    0.6800    0.6900    0.7000    0.7100
0.7200    0.7300    0.7400    0.7500    0.7600    0.7700    0.7800    0.7900
0.8000    0.8100    0.8200    0.8300    0.8400    0.8500    0.8600    0.8700
0.8800    0.8900    0.9000    0.9100    0.9200    0.9300    0.9400    0.9500
0.9600    0.9700    0.9800    0.9900    1.0000    1.0100    1.0200    1.0300
1.0400    1.0500    1.0600    1.0700    1.0800    1.0900    1.1000    1.1100
1.1200    1.1300    1.1400    1.1500    1.1600    1.1700    1.1800    1.1900
1.2000    1.2100    1.2200    1.2300    1.2400    1.2500    1.2600    1.2700
1.2800    1.2900    1.3000    1.3100    1.3200    1.3300    1.3400    1.3500
1.3600    1.3700    1.3800    1.3900    1.4000    1.4100    1.4200    1.4300
1.4400    1.4500    1.4600    1.4700    1.4800    1.4900    1.5000    1.5100
1.5200    1.5300    1.5400    1.5500    1.5600    1.5700    1.5800    1.5900
1.6000    1.6100    1.6200    1.6300    1.6400    1.6500    1.6600    1.6700
1.6800    1.6900    1.7000    1.7100    1.7200    1.7300    1.7400    1.7500
1.7600    1.7700    1.7800    1.7900    1.8000    1.8100    1.8200    1.8300
1.8400    1.8500    1.8600    1.8700    1.8800    1.8900    1.9000    1.9100
1.9200    1.9300    1.9400    1.9500    1.9600    1.9700    1.9800    1.9900
2.0000    2.0100    2.0200    2.0300    2.0400    2.0500    2.0600    2.0700
2.0800    2.0900    2.1000    2.1100    2.1200    2.1300    2.1400    2.1500
2.1600    2.1700    2.1800    2.1900    2.2000    2.2100    2.2200    2.2300
2.2400    2.2500    2.2600    2.2700    2.2800    2.2900    2.3000    2.3100
2.3200    2.3300    2.3400    2.3500    2.3600    2.3700    2.3800    2.3900
2.4000    2.4100    2.4200    2.4300    2.4400    2.4500    2.4600    2.4700
2.4800    2.4900    2.5000    2.5100    2.5200    2.5300    2.5400    2.5500
2.5600    2.5700    2.5800    2.5900    2.6000    2.6100    2.6200    2.6300
2.6400    2.6500    2.6600    2.6700    2.6800    2.6900    2.7000    2.7100
2.7200    2.7300    2.7400    2.7500    2.7600    2.7700    2.7800    2.7900
2.8000    2.8100    2.8200    2.8300    2.8400    2.8500    2.8600    2.8700
2.8800    2.8900    2.9000    2.9100    2.9200    2.9300    2.9400    2.9500
2.9600    2.9700    2.9800    2.9900    3.0000    3.0100    3.0200    3.0300
3.0400    3.0500    3.0600    3.0700    3.0800    3.0900    3.1000    3.1100
3.1200    3.1300    3.1400    3.1500    3.1600    3.1700    3.1800    3.1900
3.2000    3.2100    3.2200    3.2300    3.2400    3.2500    3.2600    3.2700
3.2800    3.2900    3.3000    3.3100    3.3200    3.3300    3.3400    3.3500
3.3600    3.3700    3.3800    3.3900    3.4000    3.4100    3.4200    3.4300
3.4400    3.4500    3.4600    3.4700    3.4800    3.4900    3.5000    3.5100
3.5200    3.5300    3.5400    3.5500    3.5600    3.5700    3.5800    3.5900
3.6000    3.6100    3.6200    3.6300    3.6400    3.6500    3.6600    3.6700
3.6800    3.6900    3.7000    3.7100    3.7200    3.7300    3.7400    3.7500
3.7600    3.7700    3.7800    3.7900    3.8000    3.8100    3.8200    3.8300
3.8400    3.8500    3.8600    3.8700    3.8800    3.8900    3.9000    3.9100
3.9200    3.9300    3.9400    3.9500    3.9600    3.9700    3.9800    3.9900
4.0000    4.0100    4.0200    4.0300    4.0400    4.0500    4.0600    4.0700
4.0800    4.0900    4.1000    4.1100    4.1200    4.1300    4.1400    4.1500
4.1600    4.1700    4.1800    4.1900    4.2000    4.2100    4.2200    4.2300
4.2400    4.2500    4.2600    4.2700    4.2800    4.2900    4.3000    4.3100
4.3200    4.3300    4.3400    4.3500    4.3600    4.3700    4.3800    4.3900
4.4000    4.4100    4.4200    4.4300    4.4400    4.4500    4.4600    4.4700
4.4800    4.4900    4.5000    4.5100    4.5200    4.5300    4.5400    4.5500
4.5600    4.5700    4.5800    4.5900    4.6000    4.6100    4.6200    4.6300
4.6400    4.6500    4.6600    4.6700    4.6800    4.6900    4.7000    4.7100
4.7200    4.7300    4.7400    4.7500    4.7600    4.7700    4.7800    4.7900
4.8000    4.8100    4.8200    4.8300    4.8400    4.8500    4.8600    4.8700
4.8800    4.8900    4.9000    4.9100    4.9200    4.9300    4.9400    4.9500
4.9600    4.9700    4.9800    4.9900    5.0000    5.0100    5.0200    5.0300
5.0400    5.0500    5.0600    5.0700    5.0800    5.0900    5.1000    5.1100
5.1200    5.1300    5.1400    5.1500    5.1600    5.1700    5.1800    5.1900
5.2000    5.2100    5.2200    5.2300    5.2400    5.2500    5.2600    5.2700
5.2800    5.2900    5.3000    5.3100    5.3200    5.3300    5.3400    5.3500
5.3600    5.3700    5.3800    5.3900    5.4000    5.4100    5.4200    5.4300
5.4400    5.4500    5.4600    5.4700    5.4800    5.4900    5.5000    5.5100
5.5200    5.5300    5.5400    5.5500    5.5600    5.5700    5.5800    5.5900
5.6000    5.6100    5.6200    5.6300    5.6400    5.6500    5.6600    5.6700
5.6800    5.6900    5.7000    5.7100    5.7200    5.7300    5.7400    5.7500
5.7600    5.7700    5.7800    5.7900    5.8000    5.8100    5.8200    5.8300
5.8400    5.8500    5.8600    5.8700    5.8800    5.8900    5.9000    5.9100
5.9200    5.9300    5.9400    5.9500    5.9600    5.9700    5.9800    5.9900
</PP_R>
<PP_RAB type="real"  size="600" columns="8">
0.0100    0.0100    0.0100    0.0100    0.0100    0.0100    0.0100    0.0100
0.0100    0.0100    0.0100    0.0100    0.0100    0.0100    0.0100    0.0100
0.0100    0.0100    0.0100    0.0100    0.0100    0.0100    0.0100    0.0100
0.0100    0.0100    0.0100    0.0100    0.0100    0.0100    0.0100    0.0100
0.0100    0.0100    0.0100    0.0100    0.0100    0.0100    0.0100    0.0100
0.0100    0.0100    0.0100    0.0100    0.0100    0.0100    0.0100    0.0100
0.0100    0.0100    0.0100    0.0100    0.0100    0.0100    0.0100    0.0100
0.0100    0.0100    0.0100    0.0100    0.0100    0.0100    0.0100    0.0100
0.0100    0.0100    0.0100    0.0100    0.0100    0.0100    0.0100    0.0100
0.0100    0.0100    0.0100    0.0100    0.0100    0.0100    0.0100    0.0100
0.0100    0.0100    0.0100    0.0100    0.0100    0.0100    0.0100    0.0100
0.0100    0.0100    0.0100    0.0100    0.0100    0.0100    0.0100    0.0100
0.0100    0.0100    0.0100    0.0100    0.0100    0.0100    0.0100    0.0100
0.0100    0.0100    0.0100    0.0100    0.0100    0.0100    0.0100    0.0100
0.0100    0.0100    0.0100    0.0100    0.0100    0.0100    0.0100    0.0100
0.0100    0.0100    0.0100    0.0100    0.0100    0.0100    0.0100    0.0100
0.0100    0.0100    0.0100    0.0100    0.0100    0.0100    0.0100    0.0100
0.0100    0.0100    0.0100    0.0100    0.0100    0.0100    0.0100    0.0100
0.0100    0.0100    0.0100    0.0100    0.0100    0.0100    0.0100    0.0100
0.0100    0.0100    0.0100    0.0100    0.0100    0.0100    0.0100    0.0100
0.0100    0.0100    0.0100    0.0100    0.0100    0.0100    0.0100    0.0100
0.0100    0.0100    0.0100    0.0100    0.0100    0.0100    0.0100    0.0100
0.0100    0.0100    0.0100    0.0100    0.0100    0.0100    0.0100    0.0100
0.0100    0.0100    0.0100    0.0100    0.0100    0.0100    0.0100    0.0100
0.0100    0.0100    0.0100    0.0100    0.0100    0.0100    0.0100    0.0100
0.0100    0.0100    0.0100    0.0100    0.0100    0.0100    0.0100    0.0100
0.0100    0.0100    0.0100    0.0100    0.0100    0.0100    0.0100    0.0100
0.0100    0.0100    0.0100    0.0100    0.0100    0.0100    0.0100    0.0100
0.0100    0.0100    0.0100    0.0100    0.0100    0.0100    0.0100    0.0100
0.0100    0.0100    0.0100    0.0100    0.0100    0.0100    0.0100    0.0100
0.0100    0.0100    0.0100    0.0100    0.0100    0.0100    0.0100    0.0100
0.0100    0.0100    0.0100    0.0100    0.0100    0.0100    0.0100    0.0100
0.0100    0.0100    0.0100    0.0100    0.0100    0.0100    0.0100    0.0100
0.0100    0.0100    0.0100    0.0100    0.0100    0.0100    0.0100    0.0100
0.0100    0.0100    0.0100    0.0100    0.0100    0.0100    0.0100    0.0100
0.0100    0.0100    0.0100    0.0100    0.0100    0.0100    0.0100    0.0100
0.0100    0.0100    0.0100    0.0100    0.0100    0.0100    0.0100    0.0100
0.0100    0.0100    0.0100    0.0100    0.0100    0.0100    0.0100    0.0100
0.0100    0.0100    0.0100    0.0100    0.0100    0.0100    0.0100    0.0100
0.0100    0.0100    0.0100    0.0100    0.0100    0.0100    0.0100    0.0100
0.0100    0.0100    0.0100    0.0100    0.0100    0.0100    0.0100    0.0100
0.0100    0.0100    0.0100    0.0100    0.0100    0.0100    0.0100    0.0100
0.0100    0.0100    0.0100    0.0100    0.0100    0.0100    0.0100    0.0100
0.0100    0.0100    0.0100    0.0100    0.0100    0.0100    0.0100    0.0100
0.0100    0.0100    0.0100    0.0100    0.0100    0.0100    0.0100    0.0100
0.0100    0.0100    0.0100    0.0100    0.0100    0.0100    0.0100    0.0100
0.0100    0.0100    0.0100    0.0100    0.0100    0.0100    0.0100    0.0100
0.0100    0.0100    0.0100    0.0100    0.0100    0.0100    0.0100    0.0100
0.0100    0.0100    0.0100    0.0100    0.0100    0.0100    0.0100    0.0100
0.0100    0.0100    0.0100    0.0100    0.0100    0.0100    0.0100    0.0100
0.0100    0.0100    0.0100    0.0100    0.0100    0.0100    0.0100    0.0100
0.0100    0.0100    0.0100    0.0100    0.0100    0.0100    0.0100    0.0100
0.0100    0.0100    0.0100    0.0100    0.0100    0.0100    0.0100    0.0100
0.0100    0.0100    0.0100    0.0100    0.0100    0.0100    0.0100    0.0100
0.0100    0.0100    0.0100    0.0100    0.0100    0.0100    0.0100    0.0100
0.0100    0.0100    0.0100    0.0100    0.0100    0.0100    0.0100    0.0100
0.0100    0.0100    0.0100    0.0100    0.0100    0.0100    0.0100    0.0100
0.0100    0.0100    0.0100    0.0100    0.0100    0.0100    0.0100    0.0100
0.0100    0.0100    0.0100    0.0100    0.0100    0.0100    0.0100    0.0100
0.0100    0.0100    0.0100    0.0100    0.0100    0.0100    0.0100    0.0100
0.0100    0.0100    0.0100    0.0100    0.0100    0.0100    0.0100    0.0100
0.0100    0.0100    0.0100    0.0100    0.0100    0.0100    0.0100    0.0100
0.0100    0.0100    0.0100    0.0100    0.0100    0.0100    0.0100    0.0100
0.0100    0.0100    0.0100    0.0100    0.0100    0.0100    0.0100    0.0100
0.0100    0.0100    0.0100    0.0100    0.0100    0.0100    0.0100    0.0100
0.0100    0.0100    0.0100    0.0100    0.0100    0.0100    0.0100    0.0100
0.0100    0.0100    0.0100    0.0100    0.0100    0.0100    0.0100    0.0100
0.0100    0.0100    0.0100    0.0100    0.0100    0.0100    0.0100    0.0100
0.0100    0.0100    0.0100    0.0100    0.0100    0.0100    0.0100    0.0100
0.0100    0.0100    0.0100    0.0100    0.0100    0.0100    0.0100    0.0100
0.0100    0.0100    0.0100    0.0100    0.0100    0.0100    0.0100    0.0100
0.0100    0.0100    0.0100    0.0100    0.0100    0.0100    0.0100    0.0100
0.0100    0.0100    0.0100    0.0100    0.0100    0.0100    0.0100    0.0100
0.0100    0.0100    0.0100    0.0100    0.0100    0.0100    0.0100    0.0100
0.0100    0.0100    0.0100    0.0100    0.0100    0.0100    0.0100    0.0100
</PP_RAB>
</PP_MESH>
<PP_LOCAL type="real"  size="600" columns="4">
-5.7447719910E+01   -5.7445701331E+01   -5.7439645375E+01   -5.7429551437E+01
-5.7415418506E+01   -5.7397245172E+01   -5.7375029634E+01   -5.7348769710E+01
-5.7318462845E+01   -5.7284106126E+01   -5.7245696298E+01   -5.7203229780E+01
-5.7156702691E+01   -5.7106110867E+01   -5.7051449894E+01   -5.6992715137E+01
-5.6929901768E+01   -5.6863004813E+01   -5.6792019183E+01   -5.6716939724E+01
-5.6637761264E+01   -5.6554478665E+01   -5.6467086878E+01   -5.6375581004E+01
-5.6279956359E+01   -5.6180208538E+01   -5.6076333491E+01   -5.5968327595E+01
-5.5856187735E+01   -5.5739911385E+01   -5.5619496696E+01   -5.5494942582E+01
-5.5366248811E+01   -5.5233416106E+01   -5.5096446233E+01   -5.4955342106E+01
-5.4810107887E+01   -5.4660749084E+01   -5.4507272661E+01   -5.4349687135E+01
-5.4188002687E+01   -5.4022231260E+01   -5.3852386668E+01   -5.3678484698E+01
-5.3500543209E+01   -5.3318582233E+01   -5.3132624075E+01   -5.2942693404E+01
-5.2748817348E+01   -5.2551025579E+01   -5.2349350396E+01   -5.2143826807E+01
-5.1934492598E+01   -5.1721388406E+01   -5.1504557776E+01   -5.1284047216E+01
-5.1059906247E+01   -5.0832187442E+01   -5.0600946456E+01   -5.0366242054E+01
-5.0128136122E+01   -4.9886693673E+01   -4.9641982845E+01   -4.9394074889E+01
-4.9143044143E+01   -4.8888968000E+01   -4.8631926867E+01   -4.8372004110E+01
-4.8109285991E+01   -4.7843861597E+01   -4.7575822754E+01   -4.7305263938E+01
-4.7032282169E+01   -4.6756976905E+01   -4.6479449919E+01   -4.6199805174E+01
-4.5918148688E+01   -4.5634588392E+01   -4.5349233983E+01   -4.5062196771E+01
-4.4773589520E+01   -4.4483526290E+01   -4.4192122271E+01   -4.3899493614E+01
-4.3605757270E+01   -4.3311030815E+01   -4.3015432286E+01   -4.2719080013E+01
-4.2422092457E+01   -4.2124588042E+01   -4.1826685003E+01   -4.1528501225E+01
-4.1230154094E+01   -4.0931760348E+01   -4.0633435940E+01   -4.0335295892E+01
-4.0037454170E+01   -3.9740023555E+01   -3.9443115519E+01   -3.9146840107E+01
-3.8851305828E+01   -3.8556619544E+01   -3.8262886367E+01   -3.7970209557E+01
-3.7678690427E+01   -3.7388428247E+01   -3.7099520155E+01   -3.6812061067E+01
-3.6526143589E+01   -3.6241857932E+01   -3.5959291825E+01   -3.5678530435E+01
-3.5399656279E+01   -3.5122749146E+01   -3.4847886008E+01   -3.4575140942E+01
-3.4304585044E+01   -3.4036286347E+01   -3.3770309738E+01   -3.3506716874E+01
-3.3245566101E+01   -3.2986912369E+01   -3.2730807152E+01   -3.2477298368E+01
-3.2226430296E+01   -3.1978243498E+01   -3.1732774744E+01   -3.1490056933E+01
-3.1250119021E+01   -3.1012985951E+01   -3.0778678579E+01   -3.0547213611E+01
-3.0318603534E+01   -3.0092856561E+01   -2.9869976565E+01   -2.9649963022E+01
-2.9432810962E+01   -2.9218510913E+01   -2.9007048855E+01   -2.8798406149E+01
-2.8592559560E+01   -2.8389481205E+01   -2.8189138278E+01   -2.7991493244E+01
-2.7796503216E+01   -2.7604124616E+01   -2.7414316371E+01   -2.7227043875E+01
-2.7042276627E+01   -2.6859974166E+01   -2.6680088754E+01   -2.6502570739E+01
-2.6327372730E+01   -2.6154454769E+01   -2.5983777129E+01   -2.5815297916E+01
-2.5648976770E+01   -2.5484775116E+01   -2.5322654553E+01   -2.5162578989E+01
-2.5004517209E+01   -2.4848442346E+01   -2.4694336158E+01   -2.4542179272E+01
-2.4391935052E+01   -2.4243563514E+01   -2.4097032158E+01   -2.3952308988E+01
-2.3809360533E+01   -2.3668153981E+01   -2.3528657245E+01   -2.3390838661E+01
-2.3254666947E+01   -2.3120111298E+01   -2.2987141419E+01   -2.2855727522E+01
-2.2725840347E+01   -2.2597451175E+01   -2.2470531850E+01   -2.2345054789E+01
-2.2220992997E+01   -2.2098320078E+01   -2.1977010243E+01   -2.1857038322E+01
-2.1738379765E+01   -2.1621010653E+01   -2.1504907694E+01   -2.1390048225E+01
-2.1276410213E+01   -2.1163972250E+01   -2.1052713547E+01   -2.0942613928E+01
-2.0833653819E+01   -2.0725814242E+01   -2.0619076796E+01   -2.0513423649E+01
-2.0408837521E+01   -2.0305301664E+01   -2.0202799851E+01   -2.0101316351E+01
-2.0000835912E+01   -1.9901343738E+01   -1.9802825472E+01   -1.9705267170E+01
-1.9608655281E+01   -1.9512976624E+01   -1.9418218365E+01   -1.9324367996E+01
-1.9231413312E+01   -1.9139342391E+01   -1.9048143571E+01   -1.8957805431E+01
-1.8868316773E+01   -1.8779666603E+01   -1.8691844111E+01   -1.8604838661E+01
-1.8518639771E+01   -1.8433237104E+01   -1.8348620453E+01   -1.8264779733E+01
-1.8181704970E+01   -1.8099386296E+01   -1.8017813939E+01   -1.7936978222E+01
-1.7856869561E+01   -1.7777478456E+01   -1.7698795495E+01   -1.7620811354E+01
-1.7543516798E+01   -1.7466902678E+01   -1.7390959941E+01   -1.7315679629E+01
-1.7241052881E+01   -1.7167070942E+01   -1.7093725163E+01   -1.7021007009E+01
-1.6948908060E+01   -1.6877420019E+01   -1.6806534714E+01   -1.6736244104E+01
-1.6666540283E+01   -1.6597415481E+01   -1.6528862069E+01   -1.6460872563E+01
-1.6393439625E+01   -1.6326556062E+01   -1.6260214832E+01   -1.6194409039E+01
-1.6129131938E+01   -1.6064376931E+01   -1.6000137565E+01   -1.5936407533E+01
-1.5873180669E+01   -1.5810450946E+01   -1.5748212472E+01   -1.5686459486E+01
-1.5625186355E+01   -1.5564387568E+01   -1.5504057729E+01   -1.5444191557E+01
-1.5384783875E+01   -1.5325829608E+01   -1.5267323778E+01   -1.5209261494E+01
-1.5151637951E+01   -1.5094448422E+01   -1.5037688255E+01   -1.4981352866E+01
-1.4925437733E+01   -1.4869938397E+01   -1.4814850450E+01   -1.4760169539E+01
-1.4705891357E+01   -1.4652011643E+01   -1.4598526177E+01   -1.4545430782E+01
-1.4492721316E+01   -1.4440393678E+01   -1.4388443801E+01   -1.4336867654E+01
-1.4285661242E+01   -1.4234820605E+01   -1.4184341820E+01   -1.4134221001E+01
-1.4084454299E+01   -1.4035037904E+01   -1.3985968047E+01   -1.3937241000E+01
-1.3888853077E+01   -1.3840800638E+01   -1.3793080088E+01   -1.3745687880E+01
-1.3698620514E+01   -1.3651874541E+01   -1.3605446564E+01   -1.3559333235E+01
-1.3513531261E+01   -1.3468037401E+01   -1.3422848470E+01   -1.3377961334E+01
-1.3333372905E+01   -1.3289080153E+01   -1.3245080095E+01   -1.3201369825E+01
-1.3157946490E+01   -1.3114807266E+01   -1.3071949343E+01   -1.3029370057E+01
-1.2987066705E+01   -1.2945036756E+01   -1.2903277377E+01   -1.2861785463E+01
-1.2820558227E+01   -1.2779592481E+01   -1.2738886805E+01   -1.2698439808E+01
-1.2658249975E+01   -1.2618316389E+01   -1.2578635534E+01   -1.2539204535E+01
-1.2500020242E+01   -1.2461079511E+01   -1.2422380438E+01   -1.2383920793E+01
-1.2345698551E+01   -1.2307711640E+01   -1.2269957781E+01   -1.2232434838E+01
-1.2195140690E+01   -1.2158073247E+01   -1.2121230461E+01   -1.2084610293E+01
-1.2048210726E+01   -1.2012029772E+01   -1.1976065470E+01   -1.1940315880E+01
-1.1904779085E+01   -1.1869453191E+01   -1.1834336327E+01   -1.1799426641E+01
-1.1764722307E+01   -1.1730221518E+01   -1.1695922488E+01   -1.1661823452E+01
-1.1627922668E+01   -1.1594218410E+01   -1.1560708974E+01   -1.1527392678E+01
-1.1494267854E+01   -1.1461332859E+01   -1.1428586064E+01   -1.1396025861E+01
-1.1363650660E+01   -1.1331458889E+01   -1.1299448993E+01   -1.1267619435E+01
-1.1235968696E+01   -1.1204495272E+01   -1.1173197679E+01   -1.1142074446E+01
-1.1111124121E+01   -1.1080345267E+01   -1.1049736463E+01   -1.1019296303E+01
-1.0989023397E+01   -1.0958916372E+01   -1.0928973866E+01   -1.0899194537E+01
-1.0869577052E+01   -1.0840120096E+01   -1.0810822369E+01   -1.0781682581E+01
-1.0752699460E+01   -1.0723871745E+01   -1.0695198191E+01   -1.0666677563E+01
-1.0638308641E+01   -1.0610090219E+01   -1.0582021101E+01   -1.0554100106E+01
-1.0526326065E+01   -1.0498697821E+01   -1.0471214227E+01   -1.0443874153E+01
-1.0416676475E+01   -1.0389620085E+01   -1.0362703885E+01   -1.0335926787E+01
-1.0309287716E+01   -1.0282785609E+01   -1.0256419410E+01   -1.0230188078E+01
-1.0204090580E+01   -1.0178125895E+01   -1.0152293011E+01   -1.0126590927E+01
-1.0101018652E+01   -1.0075575207E+01   -1.0050259618E+01   -1.0025070926E+01
-1.0000008177E+01   -9.9750704314E+00   -9.9502567545E+00   -9.9255662233E+00
-9.9009979233E+00   -9.8765509490E+00   -9.8522244040E+00   -9.8280174005E+00
-9.8039290596E+00   -9.7799585109E+00   -9.7561048925E+00   -9.7323673508E+00
-9.7087450406E+00   -9.6852371250E+00   -9.6618427749E+00   -9.6385611694E+00
-9.6153914954E+00   -9.5923329476E+00   -9.5693847285E+00   -9.5465460482E+00
-9.5238161241E+00   -9.5011941814E+00   -9.4786794523E+00   -9.4562711765E+00
-9.4339686007E+00   -9.4117709789E+00   -9.3896775719E+00   -9.3676876475E+00
-9.3458004804E+00   -9.3240153520E+00   -9.3023315503E+00   -9.2807483701E+00
-9.2592651126E+00   -9.2378810855E+00   -9.2165956029E+00   -9.1954079851E+00
-9.1743175588E+00   -9.1533236566E+00   -9.1324256176E+00   -9.1116227865E+00
-9.0909145143E+00   -9.0703001576E+00   -9.0497790791E+00   -9.0293506470E+00
-9.0090142353E+00   -8.9887692237E+00   -8.9686149974E+00   -8.9485509470E+00
-8.9285764687E+00   -8.9086909641E+00   -8.8888938398E+00   -8.8691845082E+00
-8.8495623863E+00   -8.8300268968E+00   -8.8105774671E+00   -8.7912135297E+00
-8.7719345223E+00   -8.7527398873E+00   -8.7336290721E+00   -8.7146015287E+00
-8.6956567141E+00   -8.6767940899E+00   -8.6580131225E+00   -8.6393132827E+00
-8.6206940460E+00   -8.6021548923E+00   -8.5836953062E+00   -8.5653147764E+00
-8.5470127961E+00   -8.5287888630E+00   -8.5106424788E+00   -8.4925731496E+00
-8.4745803857E+00   -8.4566637013E+00   -8.4388226151E+00   -8.4210566494E+00
-8.4033653309E+00   -8.3857481902E+00   -8.3682047615E+00   -8.3507345833E+00
-8.3333371977E+00   -8.3160121508E+00   -8.2987589923E+00   -8.2815772756E+00
-8.2644665579E+00   -8.2474264002E+00   -8.2304563667E+00   -8.2135560255E+00
-8.1967249483E+00   -8.1799627100E+00   -8.1632688891E+00   -8.1466430678E+00
-8.1300848312E+00   -8.1135937682E+00   -8.0971694707E+00   -8.0808115343E+00
-8.0645195574E+00   -8.0482931419E+00   -8.0321318929E+00   -8.0160354186E+00
-8.0000033304E+00   -7.9840352426E+00   -7.9681307728E+00   -7.9522895417E+00
-7.9365111726E+00   -7.9207952923E+00   -7.9051415303E+00   -7.8895495188E+00
-7.8740188934E+00   -7.8585492921E+00   -7.8431403561E+00   -7.8277917291E+00
-7.8125030578E+00   -7.7972739915E+00   -7.7821041824E+00   -7.7669932853E+00
-7.7519409576E+00   -7.7369468595E+00   -7.7220106538E+00   -7.7071320058E+00
-7.6923105835E+00   -7.6775460573E+00   -7.6628381002E+00   -7.6481863878E+00
-7.6335905980E+00   -7.6190504113E+00   -7.6045655106E+00   -7.5901355811E+00
-7.5757603104E+00   -7.5614393887E+00   -7.5471725083E+00   -7.5329593638E+00
-7.5187996523E+00   -7.5046930729E+00   -7.4906393272E+00   -7.4766381189E+00
-7.4626891541E+00   -7.4487921407E+00   -7.4349467891E+00   -7.4211528118E+00
-7.4074099233E+00   -7.3937178404E+00   -7.3800762818E+00   -7.3664849684E+00
-7.3529436231E+00   -7.3394519709E+00   -7.3260097387E+00   -7.3126166554E+00
-7.2992724521E+00   -7.2859768616E+00   -7.2727296187E+00   -7.2595304602E+00
-7.2463791247E+00   -7.2332753529E+00   -7.2202188872E+00   -7.2072094718E+00
-7.1942468530E+00   -7.1813307785E+00   -7.1684609983E+00   -7.1556372639E+00
-7.1428593285E+00   -7.1301269473E+00   -7.1174398770E+00   -7.1047978764E+00
-7.0922007055E+00   -7.0796481264E+00   -7.0671399028E+00   -7.0546757999E+00
-7.0422555847E+00   -7.0298790258E+00   -7.0175458935E+00   -7.0052559596E+00
-6.9930089975E+00   -6.9808047822E+00   -6.9686430904E+00   -6.9565237001E+00
-6.9444463911E+00   -6.9324109445E+00   -6.9204171431E+00   -6.9084647710E+00
-6.8965536141E+00   -6.8846834594E+00   -6.8728540957E+00   -6.8610653129E+00
-6.8493169028E+00   -6.8376086582E+00   -6.8259403735E+00   -6.8143118445E+00
-6.8027228683E+00   -6.7911732436E+00   -6.7796627702E+00   -6.7681912493E+00
-6.7567584836E+00   -6.7453642770E+00   -6.7340084347E+00   -6.7226907634E+00
-6.7114110707E+00   -6.7001691661E+00   -6.6889648597E+00   -6.6777979635E+00
</PP_LOCAL>
<PP_NONLOCAL>
<PP_BETA.1
type="real"
size="600"
columns="4"
index="1"
angular_momentum="0"
cutoff_radius_index=" 164"
cutoff_radius="    1.6300000000E+00" >
-2.7306201744E-10    7.6706705860E-02    1.5321169208E-01    2.2931407485E-01
3.0481463558E-01    3.7951663750E-01    4.5322662335E-01    5.2575518795E-01
5.9691772017E-01    6.6653510868E-01    7.3443440659E-01    8.0044945049E-01
8.6442142961E-01    9.2619940185E-01    9.8564075350E-01    1.0426116005E+00
1.0969871295E+00    1.1486518772E+00    1.1974999489E+00    1.2434351744E+00
1.2863712041E+00    1.3262315462E+00    1.3629495458E+00    1.3964683116E+00
1.4267405894E+00    1.4537285908E+00    1.4774037766E+00    1.4977466032E+00
1.5147462347E+00    1.5284002273E+00    1.5387141898E+00    1.5457014271E+00
1.5493825721E+00    1.5497852102E+00    1.5469435034E+00    1.5408978192E+00
1.5316943675E+00    1.5193848523E+00    1.5040261421E+00    1.4856799617E+00
1.4644126099E+00    1.4402947064E+00    1.4134009683E+00    1.3838100204E+00
1.3516042376E+00    1.3168696225E+00    1.2796957152E+00    1.2401755365E+00
1.1984055611E+00    1.1544857201E+00    1.1085194279E+00    1.0606136317E+00
1.0108788782E+00    9.5942939392E-01    9.0638317285E-01    8.5186206722E-01
7.9599187485E-01    7.3890241739E-01    6.8072760342E-01    6.2160547017E-01
5.6167819790E-01    5.0109209092E-01    4.3999751958E-01    3.7854881789E-01
3.1690413188E-01    2.5522521408E-01    1.9367716053E-01    1.3242808695E-01
7.1648741726E-02    1.1512054094E-02   -4.7807383285E-02   -1.0613389721E-01
-1.6329138119E-01   -2.1910400507E-01   -2.7339698401E-01   -3.2599740284E-01
-3.7673509086E-01   -4.2544354132E-01   -4.7196086868E-01   -5.1613079626E-01
-5.5780366577E-01   -5.9683745980E-01   -6.3309882757E-01   -6.6646410378E-01
-6.9682030998E-01   -7.2406612770E-01   -7.4811283213E-01   -7.6888517553E-01
-7.8632220919E-01   -8.0037803330E-01   -8.1102246429E-01   -8.1824160979E-01
-8.2203834187E-01   -8.2243266009E-01   -8.1946193668E-01   -8.1318103717E-01
-8.0366231096E-01   -7.9099544734E-01   -7.7528719396E-01   -7.5666093590E-01
-7.3525613496E-01   -7.1122763032E-01   -6.8474480294E-01   -6.5599060783E-01
-6.2516047960E-01   -5.9246111814E-01   -5.5810916276E-01   -5.2232976432E-01
-4.8535506636E-01   -4.4742260709E-01   -4.0877365540E-01   -3.6965149484E-01
-3.3029967042E-01   -2.9096021357E-01   -2.5187186128E-01   -2.1326828554E-01
-1.7537634955E-01   -1.3841440699E-01   -1.0259066051E-01   -6.8101595191E-02
-3.5130502158E-02   -3.8461067314E-03    2.5598685360E-02    5.3067911078E-02
7.8443531510E-02    1.0162626181E-01    1.2253624076E-01    1.4111353368E-01
1.5731846375E-01    1.7113176741E-01    1.8255457331E-01    1.9160820512E-01
1.9833380906E-01    2.0279181211E-01    2.0506121534E-01    2.0523873008E-01
2.0343776753E-01    1.9978729091E-01    1.9443054390E-01    1.8752366932E-01
1.7923423173E-01    1.6973966700E-01    1.5922564058E-01    1.4788446663E-01
1.3591314107E-01    1.2351217613E-01    1.1088380113E-01    9.8227675513E-02
8.5737130890E-02    7.3594855072E-02    6.1970881233E-02    5.1021647257E-02
4.0888201615E-02    3.1694982023E-02    2.3548617051E-02    1.6540716759E-02
1.0730951147E-02    6.1419224611E-03    2.8775509536E-03    1.0014129304E-03
1.9560451404E-04   -2.1082676117E-05   -1.0810963862E-08    1.7684631743E-05
0. 0. 0. 0.
0. 0. 0. 0.
0. 0. 0. 0.
0. 0. 0. 0.
0. 0. 0. 0.
0. 0. 0. 0.
0. 0. 0. 0.
0. 0. 0. 0.
0. 0. 0. 0.
0. 0. 0. 0.
0. 0. 0. 0.
0. 0. 0. 0.
0. 0. 0. 0.
0. 0. 0. 0.
0. 0. 0. 0.
0. 0. 0. 0.
0. 0. 0. 0.
0. 0. 0. 0.
0. 0. 0. 0.
0. 0. 0. 0.
0. 0. 0. 0.
0. 0. 0. 0.
0. 0. 0. 0.
0. 0. 0. 0.
0. 0. 0. 0.
0. 0. 0. 0.
0. 0. 0. 0.
0. 0. 0. 0.
0. 0. 0. 0.
0. 0. 0. 0.
0. 0. 0. 0.
0. 0. 0. 0.
0. 0. 0. 0.
0. 0. 0. 0.
0. 0. 0. 0.
0. 0. 0. 0.
0. 0. 0. 0.
0. 0. 0. 0.
0. 0. 0. 0.
0. 0. 0. 0.
0. 0. 0. 0.
0. 0. 0. 0.
0. 0. 0. 0.
0. 0. 0. 0.
0. 0. 0. 0.
0. 0. 0. 0.
0. 0. 0. 0.
0. 0. 0. 0.
0. 0. 0. 0.
0. 0. 0. 0.
0. 0. 0. 0.
0. 0. 0. 0.
0. 0. 0. 0.
0. 0. 0. 0.
0. 0. 0. 0.
0. 0. 0. 0.
0. 0. 0. 0.
0. 0. 0. 0.
0. 0. 0. 0.
0. 0. 0. 0.
0. 0. 0. 0.
0. 0. 0. 0.
0. 0. 0. 0.
0. 0. 0. 0.
0. 0. 0. 0.
0. 0. 0. 0.
0. 0. 0. 0.
0. 0. 0. 0.
0. 0. 0. 0.
0. 0. 0. 0.