<UPF version="2.0.1">
<PP_INFO>
NOTE!!!!
This file is trimmed with a mesh size of 600 from the original version.
Trimming performed at 2023-03-31 09:10:04.952194 by trim_upf.py version 0.1.0

This pseudopotential file has been produced using the code
ONCVPSP  (Optimized Norm-Conservinng Vanderbilt PSeudopotential)
scalar-relativistic version 3.3.0 08/16/2017 by D. R. Hamann
The code is available through a link at URL www.mat-simresearch.com.
Documentation with the package provides a full discription of the
input data below.
While it is not required under the terms of the GNU GPL, it is
suggested that you cite D. R. Hamann, Phys. Rev. B 88, 085117 (2013)
in any publication using these pseudopotentials.
<PP_INPUTFILE>
# ATOM AND REFERENCE CONFIGURATION
# atsym  z   nc   nv     iexc    psfile
In 49.00    8    3       4      upf
#
#   n    l    f        energy (Ha)
1    0    2.00
2    0    2.00
2    1    6.00
3    0    2.00
3    1    6.00
3    2   10.00
4    0    2.00
4    1    6.00
4    2   10.00
5    0    2.00
5    1    1.00
#
# PSEUDOPOTENTIAL AND OPTIMIZATION
# lmax
2
#
#   l,   rc,      ep,       ncon, nbas, qcut
0   2.10000  -0.30176    5    8   2.80000
1   2.35000  -0.09256    5    8   2.80000
2   1.85000  -0.68439    4    7   8.20000
#
# LOCAL POTENTIAL
# lloc, lpopt,  rc(5),   dvloc0
4    5   1.70000      0.00000
#
# VANDERBILT-KLEINMAN-BYLANDER PROJECTORs
# l, nproj, debl
0    2   1.10000
1    2   3.00000
2    2   1.50000
#
# MODEL CORE CHARGE
# icmod, fcfact, rcfact
3   5.00000   1.44000
#
# LOG DERIVATIVE ANALYSIS
# epsh1, epsh2, depsh
-12.00   12.00    0.02
#
# OUTPUT GRID
# rlmax, drl
6.00    0.01
#
# TEST CONFIGURATIONS
# ncnf
0
# nvcnf
#   n    l    f
</PP_INPUTFILE>
</PP_INFO>
<!--                               -->
<!-- END OF HUMAN READABLE SECTION -->
<!--                               -->
<PP_HEADER
generated="Generated using ONCVPSP code by D. R. Hamann"
author="anonymous"
date="171031"
comment=""
element="In"
pseudo_type="NC"
relativistic="scalar"
is_ultrasoft="F"
is_paw="F"
is_coulomb="F"
has_so="F"
has_wfc="F"
has_gipaw="F"
core_correction="T"
functional="PBE"
z_valence="   13.00"
total_psenergy="  -1.13143930383E+02"
rho_cutoff="   1.96300000000E+01"
l_max="2"
l_local="-1"
mesh_size="   600"
number_of_wfc="3"
number_of_proj="6"/>
<PP_MESH>
<PP_R type="real"  size="600" columns="8">
0.0000    0.0100    0.0200    0.0300    0.0400    0.0500    0.0600    0.0700
0.0800    0.0900    0.1000    0.1100    0.1200    0.1300    0.1400    0.1500
0.1600    0.1700    0.1800    0.1900    0.2000    0.2100    0.2200    0.2300
0.2400    0.2500    0.2600    0.2700    0.2800    0.2900    0.3000    0.3100
0.3200    0.3300    0.3400    0.3500    0.3600    0.3700    0.3800    0.3900
0.4000    0.4100    0.4200    0.4300    0.4400    0.4500    0.4600    0.4700
0.4800    0.4900    0.5000    0.5100    0.5200    0.5300    0.5400    0.5500
0.5600    0.5700    0.5800    0.5900    0.6000    0.6100    0.6200    0.6300
0.6400    0.6500    0.6600    0.6700    0.6800    0.6900    0.7000    0.7100
0.7200    0.7300    0.7400    0.7500    0.7600    0.7700    0.7800    0.7900
0.8000    0.8100    0.8200    0.8300    0.8400    0.8500    0.8600    0.8700
0.8800    0.8900    0.9000    0.9100    0.9200    0.9300    0.9400    0.9500
0.9600    0.9700    0.9800    0.9900    1.0000    1.0100    1.0200    1.0300
1.0400    1.0500    1.0600    1.0700    1.0800    1.0900    1.1000    1.1100
1.1200    1.1300    1.1400    1.1500    1.1600    1.1700    1.1800    1.1900
1.2000    1.2100    1.2200    1.2300    1.2400    1.2500    1.2600    1.2700
1.2800    1.2900    1.3000    1.3100    1.3200    1.3300    1.3400    1.3500
1.3600    1.3700    1.3800    1.3900    1.4000    1.4100    1.4200    1.4300
1.4400    1.4500    1.4600    1.4700    1.4800    1.4900    1.5000    1.5100
1.5200    1.5300    1.5400    1.5500    1.5600    1.5700    1.5800    1.5900
1.6000    1.6100    1.6200    1.6300    1.6400    1.6500    1.6600    1.6700
1.6800    1.6900    1.7000    1.7100    1.7200    1.7300    1.7400    1.7500
1.7600    1.7700    1.7800    1.7900    1.8000    1.8100    1.8200    1.8300
1.8400    1.8500    1.8600    1.8700    1.8800    1.8900    1.9000    1.9100
1.9200    1.9300    1.9400    1.9500    1.9600    1.9700    1.9800    1.9900
2.0000    2.0100    2.0200    2.0300    2.0400    2.0500    2.0600    2.0700
2.0800    2.0900    2.1000    2.1100    2.1200    2.1300    2.1400    2.1500
2.1600    2.1700    2.1800    2.1900    2.2000    2.2100    2.2200    2.2300
2.2400    2.2500    2.2600    2.2700    2.2800    2.2900    2.3000    2.3100
2.3200    2.3300    2.3400    2.3500    2.3600    2.3700    2.3800    2.3900
2.4000    2.4100    2.4200    2.4300    2.4400    2.4500    2.4600    2.4700
2.4800    2.4900    2.5000    2.5100    2.5200    2.5300    2.5400    2.5500
2.5600    2.5700    2.5800    2.5900    2.6000    2.6100    2.6200    2.6300
2.6400    2.6500    2.6600    2.6700    2.6800    2.6900    2.7000    2.7100
2.7200    2.7300    2.7400    2.7500    2.7600    2.7700    2.7800    2.7900
2.8000    2.8100    2.8200    2.8300    2.8400    2.8500    2.8600    2.8700
2.8800    2.8900    2.9000    2.9100    2.9200    2.9300    2.9400    2.9500
2.9600    2.9700    2.9800    2.9900    3.0000    3.0100    3.0200    3.0300
3.0400    3.0500    3.0600    3.0700    3.0800    3.0900    3.1000    3.1100
3.1200    3.1300    3.1400    3.1500    3.1600    3.1700    3.1800    3.1900
3.2000    3.2100    3.2200    3.2300    3.2400    3.2500    3.2600    3.2700
3.2800    3.2900    3.3000    3.3100    3.3200    3.3300    3.3400    3.3500
3.3600    3.3700    3.3800    3.3900    3.4000    3.4100    3.4200    3.4300
3.4400    3.4500    3.4600    3.4700    3.4800    3.4900    3.5000    3.5100
3.5200    3.5300    3.5400    3.5500    3.5600    3.5700    3.5800    3.5900
3.6000    3.6100    3.6200    3.6300    3.6400    3.6500    3.6600    3.6700
3.6800    3.6900    3.7000    3.7100    3.7200    3.7300    3.7400    3.7500
3.7600    3.7700    3.7800    3.7900    3.8000    3.8100    3.8200    3.8300
3.8400    3.8500    3.8600    3.8700    3.8800    3.8900    3.9000    3.9100
3.9200    3.9300    3.9400    3.9500    3.9600    3.9700    3.9800    3.9900
4.0000    4.0100    4.0200    4.0300    4.0400    4.0500    4.0600    4.0700
4.0800    4.0900    4.1000    4.1100    4.1200    4.1300    4.1400    4.1500
4.1600    4.1700    4.1800    4.1900    4.2000    4.2100    4.2200    4.2300
4.2400    4.2500    4.2600    4.2700    4.2800    4.2900    4.3000    4.3100
4.3200    4.3300    4.3400    4.3500    4.3600    4.3700    4.3800    4.3900
4.4000    4.4100    4.4200    4.4300    4.4400    4.4500    4.4600    4.4700
4.4800    4.4900    4.5000    4.5100    4.5200    4.5300    4.5400    4.5500
4.5600    4.5700    4.5800    4.5900    4.6000    4.6100    4.6200    4.6300
4.6400    4.6500    4.6600    4.6700    4.6800    4.6900    4.7000    4.7100
4.7200    4.7300    4.7400    4.7500    4.7600    4.7700    4.7800    4.7900
4.8000    4.8100    4.8200    4.8300    4.8400    4.8500    4.8600    4.8700
4.8800    4.8900    4.9000    4.9100    4.9200    4.9300    4.9400    4.9500
4.9600    4.9700    4.9800    4.9900    5.0000    5.0100    5.0200    5.0300
5.0400    5.0500    5.0600    5.0700    5.0800    5.0900    5.1000    5.1100
5.1200    5.1300    5.1400    5.1500    5.1600    5.1700    5.1800    5.1900
5.2000    5.2100    5.2200    5.2300    5.2400    5.2500    5.2600    5.2700
5.2800    5.2900    5.3000    5.3100    5.3200    5.3300    5.3400    5.3500
5.3600    5.3700    5.3800    5.3900    5.4000    5.4100    5.4200    5.4300
5.4400    5.4500    5.4600    5.4700    5.4800    5.4900    5.5000    5.5100
5.5200    5.5300    5.5400    5.5500    5.5600    5.5700    5.5800    5.5900
5.6000    5.6100    5.6200    5.6300    5.6400    5.6500    5.6600    5.6700
5.6800    5.6900    5.7000    5.7100    5.7200    5.7300    5.7400    5.7500
5.7600    5.7700    5.7800    5.7900    5.8000    5.8100    5.8200    5.8300
5.8400    5.8500    5.8600    5.8700    5.8800    5.8900    5.9000    5.9100
5.9200    5.9300    5.9400    5.9500    5.9600    5.9700    5.9800    5.9900
</PP_R>
<PP_RAB type="real"  size="600" columns="8">
0.0100    0.0100    0.0100    0.0100    0.0100    0.0100    0.0100    0.0100
0.0100    0.0100    0.0100    0.0100    0.0100    0.0100    0.0100    0.0100
0.0100    0.0100    0.0100    0.0100    0.0100    0.0100    0.0100    0.0100
0.0100    0.0100    0.0100    0.0100    0.0100    0.0100    0.0100    0.0100
0.0100    0.0100    0.0100    0.0100    0.0100    0.0100    0.0100    0.0100
0.0100    0.0100    0.0100    0.0100    0.0100    0.0100    0.0100    0.0100
0.0100    0.0100    0.0100    0.0100    0.0100    0.0100    0.0100    0.0100
0.0100    0.0100    0.0100    0.0100    0.0100    0.0100    0.0100    0.0100
0.0100    0.0100    0.0100    0.0100    0.0100    0.0100    0.0100    0.0100
0.0100    0.0100    0.0100    0.0100    0.0100    0.0100    0.0100    0.0100
0.0100    0.0100    0.0100    0.0100    0.0100    0.0100    0.0100    0.0100
0.0100    0.0100    0.0100    0.0100    0.0100    0.0100    0.0100    0.0100
0.0100    0.0100    0.0100    0.0100    0.0100    0.0100    0.0100    0.0100
0.0100    0.0100    0.0100    0.0100    0.0100    0.0100    0.0100    0.0100
0.0100    0.0100    0.0100    0.0100    0.0100    0.0100    0.0100    0.0100
0.0100    0.0100    0.0100    0.0100    0.0100    0.0100    0.0100    0.0100
0.0100    0.0100    0.0100    0.0100    0.0100    0.0100    0.0100    0.0100
0.0100    0.0100    0.0100    0.0100    0.0100    0.0100    0.0100    0.0100
0.0100    0.0100    0.0100    0.0100    0.0100    0.0100    0.0100    0.0100
0.0100    0.0100    0.0100    0.0100    0.0100    0.0100    0.0100    0.0100
0.0100    0.0100    0.0100    0.0100    0.0100    0.0100    0.0100    0.0100
0.0100    0.0100    0.0100    0.0100    0.0100    0.0100    0.0100    0.0100
0.0100    0.0100    0.0100    0.0100    0.0100    0.0100    0.0100    0.0100
0.0100    0.0100    0.0100    0.0100    0.0100    0.0100    0.0100    0.0100
0.0100    0.0100    0.0100    0.0100    0.0100    0.0100    0.0100    0.0100
0.0100    0.0100    0.0100    0.0100    0.0100    0.0100    0.0100    0.0100
0.0100    0.0100    0.0100    0.0100    0.0100    0.0100    0.0100    0.0100
0.0100    0.0100    0.0100    0.0100    0.0100    0.0100    0.0100    0.0100
0.0100    0.0100    0.0100    0.0100    0.0100    0.0100    0.0100    0.0100
0.0100    0.0100    0.0100    0.0100    0.0100    0.0100    0.0100    0.0100
0.0100    0.0100    0.0100    0.0100    0.0100    0.0100    0.0100    0.0100
0.0100    0.0100    0.0100    0.0100    0.0100    0.0100    0.0100    0.0100
0.0100    0.0100    0.0100    0.0100    0.0100    0.0100    0.0100    0.0100
0.0100    0.0100    0.0100    0.0100    0.0100    0.0100    0.0100    0.0100
0.0100    0.0100    0.0100    0.0100    0.0100    0.0100    0.0100    0.0100
0.0100    0.0100    0.0100    0.0100    0.0100    0.0100    0.0100    0.0100
0.0100    0.0100    0.0100    0.0100    0.0100    0.0100    0.0100    0.0100
0.0100    0.0100    0.0100    0.0100    0.0100    0.0100    0.0100    0.0100
0.0100    0.0100    0.0100    0.0100    0.0100    0.0100    0.0100    0.0100
0.0100    0.0100    0.0100    0.0100    0.0100    0.0100    0.0100    0.0100
0.0100    0.0100    0.0100    0.0100    0.0100    0.0100    0.0100    0.0100
0.0100    0.0100    0.0100    0.0100    0.0100    0.0100    0.0100    0.0100
0.0100    0.0100    0.0100    0.0100    0.0100    0.0100    0.0100    0.0100
0.0100    0.0100    0.0100    0.0100    0.0100    0.0100    0.0100    0.0100
0.0100    0.0100    0.0100    0.0100    0.0100    0.0100    0.0100    0.0100
0.0100    0.0100    0.0100    0.0100    0.0100    0.0100    0.0100    0.0100
0.0100    0.0100    0.0100    0.0100    0.0100    0.0100    0.0100    0.0100
0.0100    0.0100    0.0100    0.0100    0.0100    0.0100    0.0100    0.0100
0.0100    0.0100    0.0100    0.0100    0.0100    0.0100    0.0100    0.0100
0.0100    0.0100    0.0100    0.0100    0.0100    0.0100    0.0100    0.0100
0.0100    0.0100    0.0100    0.0100    0.0100    0.0100    0.0100    0.0100
0.0100    0.0100    0.0100    0.0100    0.0100    0.0100    0.0100    0.0100
0.0100    0.0100    0.0100    0.0100    0.0100    0.0100    0.0100    0.0100
0.0100    0.0100    0.0100    0.0100    0.0100    0.0100    0.0100    0.0100
0.0100    0.0100    0.0100    0.0100    0.0100    0.0100    0.0100    0.0100
0.0100    0.0100    0.0100    0.0100    0.0100    0.0100    0.0100    0.0100
0.0100    0.0100    0.0100    0.0100    0.0100    0.0100    0.0100    0.0100
0.0100    0.0100    0.0100    0.0100    0.0100    0.0100    0.0100    0.0100
0.0100    0.0100    0.0100    0.0100    0.0100    0.0100    0.0100    0.0100
0.0100    0.0100    0.0100    0.0100    0.0100    0.0100    0.0100    0.0100
0.0100    0.0100    0.0100    0.0100    0.0100    0.0100    0.0100    0.0100
0.0100    0.0100    0.0100    0.0100    0.0100    0.0100    0.0100    0.0100
0.0100    0.0100    0.0100    0.0100    0.0100    0.0100    0.0100    0.0100
0.0100    0.0100    0.0100    0.0100    0.0100    0.0100    0.0100    0.0100
0.0100    0.0100    0.0100    0.0100    0.0100    0.0100    0.0100    0.0100
0.0100    0.0100    0.0100    0.0100    0.0100    0.0100    0.0100    0.0100
0.0100    0.0100    0.0100    0.0100    0.0100    0.0100    0.0100    0.0100
0.0100    0.0100    0.0100    0.0100    0.0100    0.0100    0.0100    0.0100
0.0100    0.0100    0.0100    0.0100    0.0100    0.0100    0.0100    0.0100
0.0100    0.0100    0.0100    0.0100    0.0100    0.0100    0.0100    0.0100
0.0100    0.0100    0.0100    0.0100    0.0100    0.0100    0.0100    0.0100
0.0100    0.0100    0.0100    0.0100    0.0100    0.0100    0.0100    0.0100
0.0100    0.0100    0.0100    0.0100    0.0100    0.0100    0.0100    0.0100
0.0100    0.0100    0.0100    0.0100    0.0100    0.0100    0.0100    0.0100
0.0100    0.0100    0.0100    0.0100    0.0100    0.0100    0.0100    0.0100
</PP_RAB>
</PP_MESH>
<PP_LOCAL type="real"  size="600" columns="4">
-3.2172107708E+01   -3.2171442896E+01   -3.2169448451E+01   -3.2166124380E+01
-3.2161470645E+01   -3.2155487106E+01   -3.2148173440E+01   -3.2139529037E+01
-3.2129552884E+01   -3.2118243440E+01   -3.2105598499E+01   -3.2091615057E+01
-3.2076289179E+01   -3.2059615871E+01   -3.2041588967E+01   -3.2022201032E+01
-3.2001443275E+01   -3.1979305494E+01   -3.1955776037E+01   -3.1930841788E+01
-3.1904488180E+01   -3.1876699229E+01   -3.1847457598E+01   -3.1816744672E+01
-3.1784540665E+01   -3.1750824739E+01   -3.1715575136E+01   -3.1678769320E+01
-3.1640384136E+01   -3.1600395958E+01   -3.1558780852E+01   -3.1515514722E+01
-3.1470573462E+01   -3.1423933092E+01   -3.1375569888E+01   -3.1325460492E+01
-3.1273582019E+01   -3.1219912144E+01   -3.1164429179E+01   -3.1107112136E+01
-3.1047940780E+01   -3.0986895675E+01   -3.0923958218E+01   -3.0859110675E+01
-3.0792336202E+01   -3.0723618877E+01   -3.0652943721E+01   -3.0580296731E+01
-3.0505664903E+01   -3.0429036271E+01   -3.0350399945E+01   -3.0269746154E+01
-3.0187066300E+01   -3.0102353018E+01   -3.0015600241E+01   -2.9926803281E+01
-2.9835958917E+01   -2.9743065487E+01   -2.9648122999E+01   -2.9551133250E+01
-2.9452099945E+01   -2.9351028834E+01   -2.9247927854E+01   -2.9142807262E+01
-2.9035679786E+01   -2.8926560760E+01   -2.8815468255E+01   -2.8702423207E+01
-2.8587449520E+01   -2.8470574157E+01   -2.8351827206E+01   -2.8231241926E+01
-2.8108854756E+01   -2.7984705307E+01   -2.7858836308E+01   -2.7731293537E+01
-2.7602125709E+01   -2.7471384344E+01   -2.7339123602E+01   -2.7205400102E+01
-2.7070272712E+01   -2.6933802335E+01   -2.6796051669E+01   -2.6657084973E+01
-2.6516967821E+01   -2.6375766857E+01   -2.6233549559E+01   -2.6090384003E+01
-2.5946338642E+01   -2.5801482089E+01   -2.5655882924E+01   -2.5509609501E+01
-2.5362729781E+01   -2.5215311168E+01   -2.5067420372E+01   -2.4919123269E+01
-2.4770484789E+01   -2.4621568802E+01   -2.4472438025E+01   -2.4323153929E+01
-2.4173776660E+01   -2.4024364965E+01   -2.3874976120E+01   -2.3725665873E+01
-2.3576488377E+01   -2.3427496141E+01   -2.3278739976E+01   -2.3130268942E+01
-2.2982130308E+01   -2.2834369504E+01   -2.2687030080E+01   -2.2540153673E+01
-2.2393779973E+01   -2.2247946691E+01   -2.2102689538E+01   -2.1958042210E+01
-2.1814036375E+01   -2.1670701670E+01   -2.1528065710E+01   -2.1386154107E+01
-2.1244990491E+01   -2.1104596558E+01   -2.0964992121E+01   -2.0826195173E+01
-2.0688221976E+01   -2.0551087152E+01   -2.0414803794E+01   -2.0279383592E+01
-2.0144836972E+01   -2.0011173245E+01   -1.9878400763E+01   -1.9746527095E+01
-1.9615559191E+01   -1.9485503566E+01   -1.9356366466E+01   -1.9228154040E+01
-1.9100872500E+01   -1.8974528266E+01   -1.8849128096E+01   -1.8724679191E+01
-1.8601189283E+01   -1.8478666690E+01   -1.8357120341E+01   -1.8236559770E+01
-1.8116995082E+01   -1.7998436874E+01   -1.7880896137E+01   -1.7764384116E+01
-1.7648912148E+01   -1.7534491467E+01   -1.7421132998E+01   -1.7308847123E+01
-1.7197643446E+01   -1.7087530548E+01   -1.6978515744E+01   -1.6870604860E+01
-1.6763802017E+01   -1.6658109446E+01   -1.6553527338E+01   -1.6450053729E+01
-1.6347684437E+01   -1.6246413038E+01   -1.6146230906E+01   -1.6047127294E+01
-1.5949089469E+01   -1.5852102890E+01   -1.5756151435E+01   -1.5661217601E+01
-1.5567282883E+01   -1.5474327945E+01   -1.5382332589E+01   -1.5291276722E+01
-1.5201141172E+01   -1.5111908330E+01   -1.5023563080E+01   -1.4936092738E+01
-1.4849486848E+01   -1.4763737185E+01   -1.4678837635E+01   -1.4594784035E+01
-1.4511573732E+01   -1.4429205510E+01   -1.4347679505E+01   -1.4266996645E+01
-1.4187158586E+01   -1.4108167600E+01   -1.4030021527E+01   -1.3952711337E+01
-1.3876222980E+01   -1.3800526387E+01   -1.3725589930E+01   -1.3651403796E+01
-1.3577975628E+01   -1.3505311267E+01   -1.3433405928E+01   -1.3362254775E+01
-1.3291856349E+01   -1.3222208113E+01   -1.3153306865E+01   -1.3085148823E+01
-1.3017729705E+01   -1.2951044701E+01   -1.2885088433E+01   -1.2819854962E+01
-1.2755337804E+01   -1.2691529947E+01   -1.2628423879E+01   -1.2566011621E+01
-1.2504284758E+01   -1.2443234489E+01   -1.2382851666E+01   -1.2323126837E+01
-1.2264050279E+01   -1.2205612053E+01   -1.2147802002E+01   -1.2090609776E+01
-1.2034024854E+01   -1.1978036580E+01   -1.1922634172E+01   -1.1867806778E+01
-1.1813543522E+01   -1.1759833540E+01   -1.1706666002E+01   -1.1654030139E+01
-1.1601915274E+01   -1.1550310841E+01   -1.1499206416E+01   -1.1448591731E+01
-1.1398456702E+01   -1.1348791438E+01   -1.1299586265E+01   -1.1250831733E+01
-1.1202518635E+01   -1.1154638012E+01   -1.1107181166E+01   -1.1060139668E+01
-1.1013505365E+01   -1.0967270384E+01   -1.0921427138E+01   -1.0875968321E+01
-1.0830886915E+01   -1.0786176179E+01   -1.0741829643E+01   -1.0697841108E+01
-1.0654204640E+01   -1.0610914565E+01   -1.0567965468E+01   -1.0525352180E+01
-1.0483069771E+01   -1.0441113544E+01   -1.0399479030E+01   -1.0358161985E+01
-1.0317158379E+01   -1.0276464383E+01   -1.0236076358E+01   -1.0195990847E+01
-1.0156204566E+01   -1.0116714391E+01   -1.0077517350E+01   -1.0038610607E+01
-9.9999914577E+00   -9.9616573105E+00   -9.9236056806E+00   -9.8858341767E+00
-9.8483404903E+00   -9.8111223847E+00   -9.7741776846E+00   -9.7375042659E+00
-9.7011000459E+00   -9.6649629738E+00   -9.6290910219E+00   -9.5934821776E+00
-9.5581344355E+00   -9.5230457901E+00   -9.4882142299E+00   -9.4536377317E+00
-9.4193142551E+00   -9.3852417384E+00   -9.3514180956E+00   -9.3178412126E+00
-9.2845089455E+00   -9.2514191190E+00   -9.2185695257E+00   -9.1859579255E+00
-9.1535820462E+00   -9.1214395844E+00   -9.0895282071E+00   -9.0578455530E+00
-9.0263892358E+00   -8.9951568459E+00   -8.9641459545E+00   -8.9333541161E+00
-8.9027788726E+00   -8.8724177572E+00   -8.8422682978E+00   -8.8123280215E+00
-8.7825944588E+00   -8.7530651473E+00   -8.7237376360E+00   -8.6946094894E+00
-8.6656782914E+00   -8.6369416489E+00   -8.6083971956E+00   -8.5800425951E+00
-8.5518755450E+00   -8.5238937786E+00   -8.4960950687E+00   -8.4684772296E+00
-8.4410381194E+00   -8.4137756417E+00   -8.3866877476E+00   -8.3597724370E+00
-8.3330277594E+00   -8.3064518147E+00   -8.2800427540E+00   -8.2537987795E+00
-8.2277181448E+00   -8.2017991541E+00   -8.1760401619E+00   -8.1504395725E+00
-8.1249958384E+00   -8.0997074594E+00   -8.0745729812E+00   -8.0495909939E+00
-8.0247601297E+00   -8.0000790619E+00   -7.9755465018E+00   -7.9511611976E+00
-7.9269219316E+00   -7.9028275178E+00   -7.8788768000E+00   -7.8550686491E+00
-7.8314019609E+00   -7.8078756535E+00   -7.7844886653E+00   -7.7612399523E+00
-7.7381284859E+00   -7.7151532512E+00   -7.6923132442E+00   -7.6696074701E+00
-7.6470349417E+00   -7.6245946774E+00   -7.6022856993E+00   -7.5801070322E+00
-7.5580577022E+00   -7.5361367355E+00   -7.5143431570E+00   -7.4926759902E+00
-7.4711342560E+00   -7.4497169729E+00   -7.4284231553E+00   -7.4072518147E+00
-7.3862019592E+00   -7.3652725936E+00   -7.3444627196E+00   -7.3237713360E+00
-7.3031974399E+00   -7.2827400266E+00   -7.2623980908E+00   -7.2421706272E+00
-7.2220566310E+00   -7.2020550997E+00   -7.1821650331E+00   -7.1623854351E+00
-7.1427153142E+00   -7.1231536847E+00   -7.1036995674E+00   -7.0843519913E+00
-7.0651099941E+00   -7.0459726230E+00   -7.0269389355E+00   -7.0080080008E+00
-6.9891789002E+00   -6.9704507276E+00   -6.9518225904E+00   -6.9332936096E+00
-6.9148629212E+00   -6.8965296757E+00   -6.8782930385E+00   -6.8601521914E+00
-6.8421063290E+00   -6.8241546615E+00   -6.8062964150E+00   -6.7885308336E+00
-6.7708571822E+00   -6.7532747185E+00   -6.7357827271E+00   -6.7183805093E+00
-6.7010672990E+00   -6.6838424821E+00   -6.6667055157E+00   -6.6496557841E+00
-6.6326926453E+00   -6.6158158898E+00   -6.5990241912E+00   -6.5823165932E+00
-6.5656922304E+00   -6.5491501206E+00   -6.5326891982E+00   -6.5163101065E+00
-6.5000128474E+00   -6.4837974394E+00   -6.4676643171E+00   -6.4516132114E+00
-6.4356428421E+00   -6.4197523526E+00   -6.4039408066E+00   -6.3882068638E+00
-6.3725498897E+00   -6.3569694372E+00   -6.3414649007E+00   -6.3260357219E+00
-6.3106814798E+00   -6.2954015700E+00   -6.2801954282E+00   -6.2650625334E+00
-6.2500023721E+00   -6.2350144547E+00   -6.2200982543E+00   -6.2052532555E+00
-6.1904789488E+00   -6.1757748275E+00   -6.1611403767E+00   -6.1465751107E+00
-6.1320785425E+00   -6.1176501874E+00   -6.1032895656E+00   -6.0889962021E+00
-6.0747696255E+00   -6.0606093688E+00   -6.0465149695E+00   -6.0324859693E+00
-6.0185219145E+00   -6.0046223551E+00   -5.9907868455E+00   -5.9770149443E+00
-5.9633062138E+00   -5.9496602206E+00   -5.9360765352E+00   -5.9225547319E+00
-5.9090943889E+00   -5.8956950882E+00   -5.8823564157E+00   -5.8690779609E+00
-5.8558593171E+00   -5.8427000811E+00   -5.8295998535E+00   -5.8165582383E+00
-5.8035748431E+00   -5.7906492791E+00   -5.7777811607E+00   -5.7649701060E+00
-5.7522157362E+00   -5.7395176760E+00   -5.7268755535E+00   -5.7142889999E+00
-5.7017576496E+00   -5.6892811404E+00   -5.6768591130E+00   -5.6644912115E+00
-5.6521770828E+00   -5.6399163772E+00   -5.6277087477E+00   -5.6155538505E+00
-5.6034513447E+00   -5.5914008923E+00   -5.5794021583E+00   -5.5674548104E+00
-5.5555585193E+00   -5.5437129585E+00   -5.5319178041E+00   -5.5201727351E+00
-5.5084774332E+00   -5.4968315828E+00   -5.4852348709E+00   -5.4736869872E+00
-5.4621876239E+00   -5.4507364760E+00   -5.4393332409E+00   -5.4279776184E+00
-5.4166693110E+00   -5.4054080237E+00   -5.3941934637E+00   -5.3830253410E+00
-5.3719033675E+00   -5.3608272580E+00   -5.3497967292E+00   -5.3388115005E+00
-5.3278712933E+00   -5.3169758315E+00   -5.3061248410E+00   -5.2953180503E+00
-5.2845551897E+00   -5.2738359920E+00   -5.2631601920E+00   -5.2525275267E+00
-5.2419377352E+00   -5.2313905588E+00   -5.2208857406E+00   -5.2104230261E+00
-5.2000021627E+00   -5.1896228996E+00   -5.1792849884E+00   -5.1689881824E+00
-5.1587322369E+00   -5.1485169091E+00   -5.1383419584E+00   -5.1282071457E+00
-5.1181122340E+00   -5.1080569881E+00   -5.0980411748E+00   -5.0880645625E+00
-5.0781269215E+00   -5.0682280239E+00   -5.0583676436E+00   -5.0485455563E+00
-5.0387615392E+00   -5.0290153714E+00   -5.0193068339E+00   -5.0096357089E+00
-5.0000017808E+00   -4.9904048353E+00   -4.9808446599E+00   -4.9713210436E+00
-4.9618337772E+00   -4.9523826529E+00   -4.9429674646E+00   -4.9335880077E+00
-4.9242440792E+00   -4.9149354776E+00   -4.9056620029E+00   -4.8964234568E+00
-4.8872196422E+00   -4.8780503636E+00   -4.8689154270E+00   -4.8598146398E+00
-4.8507478110E+00   -4.8417147507E+00   -4.8327152707E+00   -4.8237491841E+00
-4.8148163054E+00   -4.8059164504E+00   -4.7970494362E+00   -4.7882150816E+00
-4.7794132063E+00   -4.7706436316E+00   -4.7619061800E+00   -4.7532006753E+00
-4.7445269427E+00   -4.7358848084E+00   -4.7272741002E+00   -4.7186946470E+00
-4.7101462788E+00   -4.7016288271E+00   -4.6931421244E+00   -4.6846860045E+00
-4.6762603024E+00   -4.6678648543E+00   -4.6594994975E+00   -4.6511640705E+00
-4.6428584129E+00   -4.6345823657E+00   -4.6263357706E+00   -4.6181184708E+00
-4.6099303105E+00   -4.6017711349E+00   -4.5936407904E+00   -4.5855391244E+00
-4.5774659855E+00   -4.5694212233E+00   -4.5614046883E+00   -4.5534162324E+00
-4.5454557082E+00   -4.5375229695E+00   -4.5296178711E+00   -4.5217402687E+00
-4.5138900192E+00   -4.5060669804E+00   -4.4982710109E+00   -4.4905019706E+00
-4.4827597201E+00   -4.4750441212E+00   -4.4673550364E+00   -4.4596923293E+00
-4.4520558644E+00   -4.4444455072E+00   -4.4368611239E+00   -4.4293025818E+00
-4.4217697492E+00   -4.4142624949E+00   -4.4067806890E+00   -4.3993242024E+00
-4.3918929065E+00   -4.3844866742E+00   -4.3771053787E+00   -4.3697488943E+00
-4.3624170961E+00   -4.3551098602E+00   -4.3478270632E+00   -4.3405685827E+00
</PP_LOCAL>
<PP_NONLOCAL>
<PP_BETA.1
type="real"
size="600"
columns="4"
index="1"
angular_momentum="0"
cutoff_radius_index=" 244"
cutoff_radius="    2.4300000000E+00" >
-1.9897289372E-10    5.9081042352E-02    1.1788228036E-01    1.7612552539E-01
2.3353581111E-01    2.8984298159E-01    3.4478325221E-01    3.9810073408E-01
4.4954891365E-01    4.9889207875E-01    5.4590668319E-01    5.9038264179E-01
6.3212454871E-01    6.7095281184E-01    7.0670469684E-01    7.3923527467E-01
7.6841826720E-01    7.9414678587E-01    8.1633395908E-01    8.3491344458E-01
8.4983982370E-01    8.6108887505E-01    8.6865772600E-01    8.7256488062E-01
8.7285012402E-01    8.6957430318E-01    8.6281898542E-01    8.5268599617E-01
8.3929683853E-01    8.2279199764E-01    8.0333013363E-01    7.8108716765E-01
7.5625526585E-01    7.2904172713E-01    6.9966778071E-01    6.6836730029E-01
6.3538544213E-01    6.0097721459E-01    5.6540598740E-01    5.2894194909E-01
4.9186052134E-01    4.5444073951E-01    4.1696360846E-01    3.7971044346E-01
3.4296120547E-01    3.0699284081E-01    2.7207763467E-01    2.3848158830E-01
2.0646282934E-01    1.7627006464E-01    1.4814108495E-01    1.2230133011E-01
9.8962523588E-02    7.8321384389E-02    6.0558424218E-02    4.5836837169E-02
3.4301488732E-02    2.6078010338E-02    2.1272005056E-02    1.9968369424E-02
2.2230735713E-02    2.8101038215E-02    3.7599206433E-02    5.0722987290E-02
6.7447897698E-02    8.7727308080E-02    1.1149265662E-01    1.3865379323E-01
1.6909945152E-01    2.0269784604E-01    2.3929739173E-01    2.7872754118E-01
3.2079973520E-01    3.6530846094E-01    4.1203241154E-01    4.6073574050E-01
5.1116940317E-01    5.6307257770E-01    6.1617415672E-01    6.7019430100E-01
7.2484604570E-01    7.7983694957E-01    8.3487077723E-01    8.8964920417E-01
9.4387353446E-01    9.9724642051E-01    1.0494735745E+00    1.1002654612E+00
1.1493389617E+00    1.1964189983E+00    1.2412401100E+00    1.2835479696E+00
1.3231008333E+00    1.3596709135E+00    1.3930456664E+00    1.4230289873E+00
1.4494423062E+00    1.4721255764E+00    1.4909381509E+00    1.5057595420E+00
1.5164900579E+00    1.5230513147E+00    1.5253866190E+00    1.5234612212E+00
1.5172624361E+00    1.5067996325E+00    1.4921040907E+00    1.4732287302E+00
1.4502477095E+00    1.4232559010E+00    1.3923682446E+00    1.3577189853E+00
1.3194607992E+00    1.2777638143E+00    1.2328145333E+00    1.1848146645E+00
1.1339798702E+00    1.0805384399E+00    1.0247298969E+00    9.6680354906E-01
9.0701699165E-01    8.4563457293E-01    7.8292583252E-01    7.1916392241E-01
6.5462402111E-01    5.8958175099E-01    5.2431160906E-01    4.5908542106E-01
3.9417082875E-01    3.2982981986E-01    2.6631730971E-01    2.0387978339E-01
1.4275400681E-01    8.3165813974E-02    2.5328978146E-02   -3.0555826757E-02
-8.4301969139E-02   -1.3573770082E-01   -1.8470689294E-01   -2.3106966249E-01
-2.7470288612E-01   -3.1550060048E-01   -3.5337428603E-01   -3.8825303528E-01
-4.2008360539E-01   -4.4883035536E-01   -4.7447507170E-01   -4.9701668285E-01
-5.1647086788E-01   -5.3286956234E-01   -5.4626036634E-01   -5.5670586098E-01
-5.6428283765E-01   -5.6908144895E-01   -5.7120428578E-01   -5.7076539046E-01
-5.6788921182E-01   -5.6270951187E-01   -5.5536823136E-01   -5.4601432367E-01
-5.3480256509E-01   -5.2189235074E-01   -5.0744648433E-01   -4.9162997123E-01
-4.7460882194E-01   -4.5654887602E-01   -4.3761465429E-01   -4.1796823898E-01
-3.9776822174E-01   -3.7716866265E-01   -3.5631809040E-01   -3.3535869865E-01
-3.1442558291E-01   -2.9364610463E-01   -2.7313937184E-01   -2.5301569246E-01
-2.3337610789E-01   -2.1431204492E-01   -1.9590504066E-01   -1.7822656019E-01
-1.6133790012E-01   -1.4529018030E-01   -1.3012442024E-01   -1.1587169767E-01
-1.0255338918E-01   -9.0181483511E-02   -7.8758972086E-02   -6.8280300864E-02
-5.8731891219E-02   -5.0092711399E-02   -4.2334903653E-02   -3.5424452648E-02
-2.9321893060E-02   -2.3983048152E-02   -1.9359791334E-02   -1.5400825324E-02
-1.2052470552E-02   -9.2594546674E-03   -6.9656990956E-03   -5.1150908240E-03
-3.6522366699E-03   -2.5231922088E-03   -1.6761538536E-03   -1.0621208992E-03
-6.3553086873E-04   -3.5472576667E-04   -1.8250896762E-04   -8.6695155336E-05
-4.0617099438E-05   -2.3297584704E-05   -1.8757550876E-05   -1.6180509057E-05