<UPF version="2.0.1">
<PP_INFO>
NOTE!!!!
This file is trimmed with a mesh size of 600 from the original version.
Trimming performed at 2023-03-31 09:10:04.984633 by trim_upf.py version 0.1.0

This pseudopotential file has been produced using the code
ONCVPSP  (Optimized Norm-Conservinng Vanderbilt PSeudopotential)
scalar-relativistic version 3.3.0 08/16/2017 by D. R. Hamann
The code is available through a link at URL www.mat-simresearch.com.
Documentation with the package provides a full discription of the
input data below.
While it is not required under the terms of the GNU GPL, it is
suggested that you cite D. R. Hamann, Phys. Rev. B 88, 085117 (2013)
in any publication using these pseudopotentials.
<PP_INPUTFILE>
# ATOM AND REFERENCE CONFIGURATION
# atsym  z   nc   nv     iexc    psfile
Ir 77.00   10    4       4      upf
#
#   n    l    f        energy (Ha)
1    0    2.00
2    0    2.00
2    1    6.00
3    0    2.00
3    1    6.00
3    2   10.00
4    0    2.00
4    1    6.00
4    2   10.00
4    3   14.00
5    0    2.00
5    1    6.00
5    2    7.00
6    0    2.00
#
# PSEUDOPOTENTIAL AND OPTIMIZATION
# lmax
3
#
#   l,   rc,      ep,       ncon, nbas, qcut
0   1.60000  -3.60092    4    8   8.10000
1   1.60000  -2.01014    4    8   8.10000
2   1.50000  -0.26267    4    8   8.40000
3   2.25000   0.50000    4    8   6.80000
#
# LOCAL POTENTIAL
# lloc, lpopt,  rc(5),   dvloc0
4    5   1.50000      0.00000
#
# VANDERBILT-KLEINMAN-BYLANDER PROJECTORs
# l, nproj, debl
0    2   3.36825
1    2   2.50000
2    2   1.00000
3    2   3.00000
#
# MODEL CORE CHARGE
# icmod, fcfact, rcfact
3   5.00000   1.37000
#
# LOG DERIVATIVE ANALYSIS
# epsh1, epsh2, depsh
-14.00   12.00    0.02
#
# OUTPUT GRID
# rlmax, drl
5.00    0.01
#
# TEST CONFIGURATIONS
# ncnf
0
# nvcnf
#   n    l    f
</PP_INPUTFILE>
</PP_INFO>
<!--                               -->
<!-- END OF HUMAN READABLE SECTION -->
<!--                               -->
<PP_HEADER
generated="Generated using ONCVPSP code by D. R. Hamann"
author="anonymous"
date="171031"
comment=""
element="Ir"
pseudo_type="NC"
relativistic="scalar"
is_ultrasoft="F"
is_paw="F"
is_coulomb="F"
has_so="F"
has_wfc="F"
has_gipaw="F"
core_correction="T"
functional="PBE"
z_valence="   17.00"
total_psenergy="  -2.12314076748E+02"
rho_cutoff="   1.30900000000E+01"
l_max="3"
l_local="-1"
mesh_size="   600"
number_of_wfc="4"
number_of_proj="8"/>
<PP_MESH>
<PP_R type="real"  size="600" columns="8">
0.0000    0.0100    0.0200    0.0300    0.0400    0.0500    0.0600    0.0700
0.0800    0.0900    0.1000    0.1100    0.1200    0.1300    0.1400    0.1500
0.1600    0.1700    0.1800    0.1900    0.2000    0.2100    0.2200    0.2300
0.2400    0.2500    0.2600    0.2700    0.2800    0.2900    0.3000    0.3100
0.3200    0.3300    0.3400    0.3500    0.3600    0.3700    0.3800    0.3900
0.4000    0.4100    0.4200    0.4300    0.4400    0.4500    0.4600    0.4700
0.4800    0.4900    0.5000    0.5100    0.5200    0.5300    0.5400    0.5500
0.5600    0.5700    0.5800    0.5900    0.6000    0.6100    0.6200    0.6300
0.6400    0.6500    0.6600    0.6700    0.6800    0.6900    0.7000    0.7100
0.7200    0.7300    0.7400    0.7500    0.7600    0.7700    0.7800    0.7900
0.8000    0.8100    0.8200    0.8300    0.8400    0.8500    0.8600    0.8700
0.8800    0.8900    0.9000    0.9100    0.9200    0.9300    0.9400    0.9500
0.9600    0.9700    0.9800    0.9900    1.0000    1.0100    1.0200    1.0300
1.0400    1.0500    1.0600    1.0700    1.0800    1.0900    1.1000    1.1100
1.1200    1.1300    1.1400    1.1500    1.1600    1.1700    1.1800    1.1900
1.2000    1.2100    1.2200    1.2300    1.2400    1.2500    1.2600    1.2700
1.2800    1.2900    1.3000    1.3100    1.3200    1.3300    1.3400    1.3500
1.3600    1.3700    1.3800    1.3900    1.4000    1.4100    1.4200    1.4300
1.4400    1.4500    1.4600    1.4700    1.4800    1.4900    1.5000    1.5100
1.5200    1.5300    1.5400    1.5500    1.5600    1.5700    1.5800    1.5900
1.6000    1.6100    1.6200    1.6300    1.6400    1.6500    1.6600    1.6700
1.6800    1.6900    1.7000    1.7100    1.7200    1.7300    1.7400    1.7500
1.7600    1.7700    1.7800    1.7900    1.8000    1.8100    1.8200    1.8300
1.8400    1.8500    1.8600    1.8700    1.8800    1.8900    1.9000    1.9100
1.9200    1.9300    1.9400    1.9500    1.9600    1.9700    1.9800    1.9900
2.0000    2.0100    2.0200    2.0300    2.0400    2.0500    2.0600    2.0700
2.0800    2.0900    2.1000    2.1100    2.1200    2.1300    2.1400    2.1500
2.1600    2.1700    2.1800    2.1900    2.2000    2.2100    2.2200    2.2300
2.2400    2.2500    2.2600    2.2700    2.2800    2.2900    2.3000    2.3100
2.3200    2.3300    2.3400    2.3500    2.3600    2.3700    2.3800    2.3900
2.4000    2.4100    2.4200    2.4300    2.4400    2.4500    2.4600    2.4700
2.4800    2.4900    2.5000    2.5100    2.5200    2.5300    2.5400    2.5500
2.5600    2.5700    2.5800    2.5900    2.6000    2.6100    2.6200    2.6300
2.6400    2.6500    2.6600    2.6700    2.6800    2.6900    2.7000    2.7100
2.7200    2.7300    2.7400    2.7500    2.7600    2.7700    2.7800    2.7900
2.8000    2.8100    2.8200    2.8300    2.8400    2.8500    2.8600    2.8700
2.8800    2.8900    2.9000    2.9100    2.9200    2.9300    2.9400    2.9500
2.9600    2.9700    2.9800    2.9900    3.0000    3.0100    3.0200    3.0300
3.0400    3.0500    3.0600    3.0700    3.0800    3.0900    3.1000    3.1100
3.1200    3.1300    3.1400    3.1500    3.1600    3.1700    3.1800    3.1900
3.2000    3.2100    3.2200    3.2300    3.2400    3.2500    3.2600    3.2700
3.2800    3.2900    3.3000    3.3100    3.3200    3.3300    3.3400    3.3500
3.3600    3.3700    3.3800    3.3900    3.4000    3.4100    3.4200    3.4300
3.4400    3.4500    3.4600    3.4700    3.4800    3.4900    3.5000    3.5100
3.5200    3.5300    3.5400    3.5500    3.5600    3.5700    3.5800    3.5900
3.6000    3.6100    3.6200    3.6300    3.6400    3.6500    3.6600    3.6700
3.6800    3.6900    3.7000    3.7100    3.7200    3.7300    3.7400    3.7500
3.7600    3.7700    3.7800    3.7900    3.8000    3.8100    3.8200    3.8300
3.8400    3.8500    3.8600    3.8700    3.8800    3.8900    3.9000    3.9100
3.9200    3.9300    3.9400    3.9500    3.9600    3.9700    3.9800    3.9900
4.0000    4.0100    4.0200    4.0300    4.0400    4.0500    4.0600    4.0700
4.0800    4.0900    4.1000    4.1100    4.1200    4.1300    4.1400    4.1500
4.1600    4.1700    4.1800    4.1900    4.2000    4.2100    4.2200    4.2300
4.2400    4.2500    4.2600    4.2700    4.2800    4.2900    4.3000    4.3100
4.3200    4.3300    4.3400    4.3500    4.3600    4.3700    4.3800    4.3900
4.4000    4.4100    4.4200    4.4300    4.4400    4.4500    4.4600    4.4700
4.4800    4.4900    4.5000    4.5100    4.5200    4.5300    4.5400    4.5500
4.5600    4.5700    4.5800    4.5900    4.6000    4.6100    4.6200    4.6300
4.6400    4.6500    4.6600    4.6700    4.6800    4.6900    4.7000    4.7100
4.7200    4.7300    4.7400    4.7500    4.7600    4.7700    4.7800    4.7900
4.8000    4.8100    4.8200    4.8300    4.8400    4.8500    4.8600    4.8700
4.8800    4.8900    4.9000    4.9100    4.9200    4.9300    4.9400    4.9500
4.9600    4.9700    4.9800    4.9900    5.0000    5.0100    5.0200    5.0300
5.0400    5.0500    5.0600    5.0700    5.0800    5.0900    5.1000    5.1100
5.1200    5.1300    5.1400    5.1500    5.1600    5.1700    5.1800    5.1900
5.2000    5.2100    5.2200    5.2300    5.2400    5.2500    5.2600    5.2700
5.2800    5.2900    5.3000    5.3100    5.3200    5.3300    5.3400    5.3500
5.3600    5.3700    5.3800    5.3900    5.4000    5.4100    5.4200    5.4300
5.4400    5.4500    5.4600    5.4700    5.4800    5.4900    5.5000    5.5100
5.5200    5.5300    5.5400    5.5500    5.5600    5.5700    5.5800    5.5900
5.6000    5.6100    5.6200    5.6300    5.6400    5.6500    5.6600    5.6700
5.6800    5.6900    5.7000    5.7100    5.7200    5.7300    5.7400    5.7500
5.7600    5.7700    5.7800    5.7900    5.8000    5.8100    5.8200    5.8300
5.8400    5.8500    5.8600    5.8700    5.8800    5.8900    5.9000    5.9100
5.9200    5.9300    5.9400    5.9500    5.9600    5.9700    5.9800    5.9900
</PP_R>
<PP_RAB type="real"  size="600" columns="8">
0.0100    0.0100    0.0100    0.0100    0.0100    0.0100    0.0100    0.0100
0.0100    0.0100    0.0100    0.0100    0.0100    0.0100    0.0100    0.0100
0.0100    0.0100    0.0100    0.0100    0.0100    0.0100    0.0100    0.0100
0.0100    0.0100    0.0100    0.0100    0.0100    0.0100    0.0100    0.0100
0.0100    0.0100    0.0100    0.0100    0.0100    0.0100    0.0100    0.0100
0.0100    0.0100    0.0100    0.0100    0.0100    0.0100    0.0100    0.0100
0.0100    0.0100    0.0100    0.0100    0.0100    0.0100    0.0100    0.0100
0.0100    0.0100    0.0100    0.0100    0.0100    0.0100    0.0100    0.0100
0.0100    0.0100    0.0100    0.0100    0.0100    0.0100    0.0100    0.0100
0.0100    0.0100    0.0100    0.0100    0.0100    0.0100    0.0100    0.0100
0.0100    0.0100    0.0100    0.0100    0.0100    0.0100    0.0100    0.0100
0.0100    0.0100    0.0100    0.0100    0.0100    0.0100    0.0100    0.0100
0.0100    0.0100    0.0100    0.0100    0.0100    0.0100    0.0100    0.0100
0.0100    0.0100    0.0100    0.0100    0.0100    0.0100    0.0100    0.0100
0.0100    0.0100    0.0100    0.0100    0.0100    0.0100    0.0100    0.0100
0.0100    0.0100    0.0100    0.0100    0.0100    0.0100    0.0100    0.0100
0.0100    0.0100    0.0100    0.0100    0.0100    0.0100    0.0100    0.0100
0.0100    0.0100    0.0100    0.0100    0.0100    0.0100    0.0100    0.0100
0.0100    0.0100    0.0100    0.0100    0.0100    0.0100    0.0100    0.0100
0.0100    0.0100    0.0100    0.0100    0.0100    0.0100    0.0100    0.0100
0.0100    0.0100    0.0100    0.0100    0.0100    0.0100    0.0100    0.0100
0.0100    0.0100    0.0100    0.0100    0.0100    0.0100    0.0100    0.0100
0.0100    0.0100    0.0100    0.0100    0.0100    0.0100    0.0100    0.0100
0.0100    0.0100    0.0100    0.0100    0.0100    0.0100    0.0100    0.0100
0.0100    0.0100    0.0100    0.0100    0.0100    0.0100    0.0100    0.0100
0.0100    0.0100    0.0100    0.0100    0.0100    0.0100    0.0100    0.0100
0.0100    0.0100    0.0100    0.0100    0.0100    0.0100    0.0100    0.0100
0.0100    0.0100    0.0100    0.0100    0.0100    0.0100    0.0100    0.0100
0.0100    0.0100    0.0100    0.0100    0.0100    0.0100    0.0100    0.0100
0.0100    0.0100    0.0100    0.0100    0.0100    0.0100    0.0100    0.0100
0.0100    0.0100    0.0100    0.0100    0.0100    0.0100    0.0100    0.0100
0.0100    0.0100    0.0100    0.0100    0.0100    0.0100    0.0100    0.0100
0.0100    0.0100    0.0100    0.0100    0.0100    0.0100    0.0100    0.0100
0.0100    0.0100    0.0100    0.0100    0.0100    0.0100    0.0100    0.0100
0.0100    0.0100    0.0100    0.0100    0.0100    0.0100    0.0100    0.0100
0.0100    0.0100    0.0100    0.0100    0.0100    0.0100    0.0100    0.0100
0.0100    0.0100    0.0100    0.0100    0.0100    0.0100    0.0100    0.0100
0.0100    0.0100    0.0100    0.0100    0.0100    0.0100    0.0100    0.0100
0.0100    0.0100    0.0100    0.0100    0.0100    0.0100    0.0100    0.0100
0.0100    0.0100    0.0100    0.0100    0.0100    0.0100    0.0100    0.0100
0.0100    0.0100    0.0100    0.0100    0.0100    0.0100    0.0100    0.0100
0.0100    0.0100    0.0100    0.0100    0.0100    0.0100    0.0100    0.0100
0.0100    0.0100    0.0100    0.0100    0.0100    0.0100    0.0100    0.0100
0.0100    0.0100    0.0100    0.0100    0.0100    0.0100    0.0100    0.0100
0.0100    0.0100    0.0100    0.0100    0.0100    0.0100    0.0100    0.0100
0.0100    0.0100    0.0100    0.0100    0.0100    0.0100    0.0100    0.0100
0.0100    0.0100    0.0100    0.0100    0.0100    0.0100    0.0100    0.0100
0.0100    0.0100    0.0100    0.0100    0.0100    0.0100    0.0100    0.0100
0.0100    0.0100    0.0100    0.0100    0.0100    0.0100    0.0100    0.0100
0.0100    0.0100    0.0100    0.0100    0.0100    0.0100    0.0100    0.0100
0.0100    0.0100    0.0100    0.0100    0.0100    0.0100    0.0100    0.0100
0.0100    0.0100    0.0100    0.0100    0.0100    0.0100    0.0100    0.0100
0.0100    0.0100    0.0100    0.0100    0.0100    0.0100    0.0100    0.0100
0.0100    0.0100    0.0100    0.0100    0.0100    0.0100    0.0100    0.0100
0.0100    0.0100    0.0100    0.0100    0.0100    0.0100    0.0100    0.0100
0.0100    0.0100    0.0100    0.0100    0.0100    0.0100    0.0100    0.0100
0.0100    0.0100    0.0100    0.0100    0.0100    0.0100    0.0100    0.0100
0.0100    0.0100    0.0100    0.0100    0.0100    0.0100    0.0100    0.0100
0.0100    0.0100    0.0100    0.0100    0.0100    0.0100    0.0100    0.0100
0.0100    0.0100    0.0100    0.0100    0.0100    0.0100    0.0100    0.0100
0.0100    0.0100    0.0100    0.0100    0.0100    0.0100    0.0100    0.0100
0.0100    0.0100    0.0100    0.0100    0.0100    0.0100    0.0100    0.0100
0.0100    0.0100    0.0100    0.0100    0.0100    0.0100    0.0100    0.0100
0.0100    0.0100    0.0100    0.0100    0.0100    0.0100    0.0100    0.0100
0.0100    0.0100    0.0100    0.0100    0.0100    0.0100    0.0100    0.0100
0.0100    0.0100    0.0100    0.0100    0.0100    0.0100    0.0100    0.0100
0.0100    0.0100    0.0100    0.0100    0.0100    0.0100    0.0100    0.0100
0.0100    0.0100    0.0100    0.0100    0.0100    0.0100    0.0100    0.0100
0.0100    0.0100    0.0100    0.0100    0.0100    0.0100    0.0100    0.0100
0.0100    0.0100    0.0100    0.0100    0.0100    0.0100    0.0100    0.0100
0.0100    0.0100    0.0100    0.0100    0.0100    0.0100    0.0100    0.0100
0.0100    0.0100    0.0100    0.0100    0.0100    0.0100    0.0100    0.0100
0.0100    0.0100    0.0100    0.0100    0.0100    0.0100    0.0100    0.0100
0.0100    0.0100    0.0100    0.0100    0.0100    0.0100    0.0100    0.0100
0.0100    0.0100    0.0100    0.0100    0.0100    0.0100    0.0100    0.0100
</PP_RAB>
</PP_MESH>
<PP_LOCAL type="real"  size="600" columns="4">
-4.7225932350E+01   -4.7224355588E+01   -4.7219625218E+01   -4.7211741037E+01
-4.7200702705E+01   -4.7186509746E+01   -4.7169161549E+01   -4.7148657373E+01
-4.7124996350E+01   -4.7098177486E+01   -4.7068199667E+01   -4.7035061668E+01
-4.6998762155E+01   -4.6959299698E+01   -4.6916672778E+01   -4.6870879800E+01
-4.6821919108E+01   -4.6769788999E+01   -4.6714487743E+01   -4.6656013600E+01
-4.6594364849E+01   -4.6529539807E+01   -4.6461536862E+01   -4.6390354500E+01
-4.6315991344E+01   -4.6238446185E+01   -4.6157718026E+01   -4.6073806122E+01
-4.5986710027E+01   -4.5896429640E+01   -4.5802965258E+01   -4.5706317627E+01
-4.5606488000E+01   -4.5503478194E+01   -4.5397290652E+01   -4.5287928504E+01
-4.5175395630E+01   -4.5059696730E+01   -4.4940837386E+01   -4.4818824136E+01
-4.4693664539E+01   -4.4565367247E+01   -4.4433942077E+01   -4.4299400075E+01
-4.4161753596E+01   -4.4021016364E+01   -4.3877203549E+01   -4.3730331829E+01
-4.3580419461E+01   -4.3427486342E+01   -4.3271554074E+01   -4.3112646026E+01
-4.2950787389E+01   -4.2786005232E+01   -4.2618328557E+01   -4.2447788342E+01
-4.2274417593E+01   -4.2098251378E+01   -4.1919326869E+01   -4.1737683369E+01
-4.1553362347E+01   -4.1366407450E+01   -4.1176864530E+01   -4.0984781648E+01
-4.0790209083E+01   -4.0593199331E+01   -4.0393807098E+01   -4.0192089285E+01
-3.9988104971E+01   -3.9781915385E+01   -3.9573583872E+01   -3.9363175851E+01
-3.9150758772E+01   -3.8936402056E+01   -3.8720177034E+01   -3.8502156883E+01
-3.8282416544E+01   -3.8061032645E+01   -3.7838083409E+01   -3.7613648565E+01
-3.7387809241E+01   -3.7160647866E+01   -3.6932248056E+01   -3.6702694502E+01
-3.6472072855E+01   -3.6240469601E+01   -3.6007971943E+01   -3.5774667675E+01
-3.5540645056E+01   -3.5305992687E+01   -3.5070799383E+01   -3.4835154048E+01
-3.4599145553E+01   -3.4362862613E+01   -3.4126393665E+01   -3.3889826755E+01
-3.3653249419E+01   -3.3416748573E+01   -3.3180410406E+01   -3.2944320273E+01
-3.2708562595E+01   -3.2473220759E+01   -3.2238377027E+01   -3.2004112445E+01
-3.1770506755E+01   -3.1537638309E+01   -3.1305583994E+01   -3.1074419150E+01
-3.0844217502E+01   -3.0615051079E+01   -3.0386990157E+01   -3.0160103185E+01
-2.9934456724E+01   -2.9710115389E+01   -2.9487141786E+01   -2.9265596458E+01
-2.9045537831E+01   -2.8827022161E+01   -2.8610103487E+01   -2.8394833577E+01
-2.8181261888E+01   -2.7969435522E+01   -2.7759399179E+01   -2.7551195123E+01
-2.7344863141E+01   -2.7140440507E+01   -2.6937961947E+01   -2.6737459607E+01
-2.6538963019E+01   -2.6342499071E+01   -2.6148091976E+01   -2.5955763244E+01
-2.5765531649E+01   -2.5577413203E+01   -2.5391421123E+01   -2.5207565802E+01
-2.5025854780E+01   -2.4846292713E+01   -2.4668881338E+01   -2.4493619448E+01
-2.4320502857E+01   -2.4149524369E+01   -2.3980673754E+01   -2.3813937717E+01
-2.3649299869E+01   -2.3486740694E+01   -2.3326237631E+01   -2.3167764867E+01
-2.3011293430E+01   -2.2856790915E+01   -2.2704222346E+01   -2.2553552778E+01
-2.2404748689E+01   -2.2257781280E+01   -2.2112622601E+01   -2.1969239183E+01
-2.1827595800E+01   -2.1687657315E+01   -2.1549390987E+01   -2.1412769083E+01
-2.1277769240E+01   -2.1144374289E+01   -2.1012578825E+01   -2.0882384419E+01
-2.0753775015E+01   -2.0626719598E+01   -2.0501193602E+01   -2.0377177741E+01
-2.0254650874E+01   -2.0133591281E+01   -2.0013977976E+01   -1.9895790331E+01
-1.9779007804E+01   -1.9663609952E+01   -1.9549576467E+01   -1.9436887152E+01
-1.9325521890E+01   -1.9215460639E+01   -1.9106683424E+01   -1.8999170337E+01
-1.8892901537E+01   -1.8787857250E+01   -1.8684017781E+01   -1.8581363519E+01
-1.8479874951E+01   -1.8379532670E+01   -1.8280317392E+01   -1.8182209973E+01
-1.8085191421E+01   -1.7989242916E+01   -1.7894345822E+01   -1.7800481712E+01
-1.7707632378E+01   -1.7615779851E+01   -1.7524906415E+01   -1.7434994627E+01
-1.7346027327E+01   -1.7257987654E+01   -1.7170859060E+01   -1.7084625320E+01
-1.6999270545E+01   -1.6914779189E+01   -1.6831136060E+01   -1.6748326327E+01
-1.6666335524E+01   -1.6585149555E+01   -1.6504754699E+01   -1.6425137610E+01
-1.6346285319E+01   -1.6268185233E+01   -1.6190825132E+01   -1.6114193166E+01
-1.6038277853E+01   -1.5963068069E+01   -1.5888553045E+01   -1.5814722358E+01
-1.5741565923E+01   -1.5669073981E+01   -1.5597237089E+01   -1.5526046112E+01
-1.5455492205E+01   -1.5385566806E+01   -1.5316261620E+01   -1.5247568604E+01
-1.5179479956E+01   -1.5111988100E+01   -1.5045085670E+01   -1.4978765497E+01
-1.4913020597E+01   -1.4847844152E+01   -1.4783229503E+01   -1.4719170130E+01
-1.4655659644E+01   -1.4592691772E+01   -1.4530260349E+01   -1.4468359303E+01
-1.4406982646E+01   -1.4346124468E+01   -1.4285778922E+01   -1.4225940224E+01
-1.4166602639E+01   -1.4107760481E+01   -1.4049408103E+01   -1.3991539898E+01
-1.3934150289E+01   -1.3877233732E+01   -1.3820784714E+01   -1.3764797748E+01
-1.3709267376E+01   -1.3654188169E+01   -1.3599554727E+01   -1.3545361679E+01
-1.3491603690E+01   -1.3438275459E+01   -1.3385371722E+01   -1.3332887258E+01
-1.3280816888E+01   -1.3229155482E+01   -1.3177897961E+01   -1.3127039302E+01
-1.3076574540E+01   -1.3026498770E+01   -1.2976807155E+01   -1.2927494926E+01
-1.2878557385E+01   -1.2829989911E+01   -1.2781787958E+01   -1.2733947061E+01
-1.2686462836E+01   -1.2639330982E+01   -1.2592547284E+01   -1.2546107612E+01
-1.2500007921E+01   -1.2454244253E+01   -1.2408812738E+01   -1.2363709590E+01
-1.2318931108E+01   -1.2274473675E+01   -1.2230333757E+01   -1.2186507898E+01
-1.2142992723E+01   -1.2099784932E+01   -1.2056881297E+01   -1.2014278663E+01
-1.1971973941E+01   -1.1929964106E+01   -1.1888246197E+01   -1.1846817307E+01
-1.1805674587E+01   -1.1764815239E+01   -1.1724236509E+01   -1.1683935694E+01
-1.1643910126E+01   -1.1604157180E+01   -1.1564674264E+01   -1.1525458818E+01
-1.1486508313E+01   -1.1447820245E+01   -1.1409392138E+01   -1.1371221535E+01
-1.1333306003E+01   -1.1295643125E+01   -1.1258230504E+01   -1.1221065760E+01
-1.1184146526E+01   -1.1147470452E+01   -1.1111035203E+01   -1.1074838456E+01
-1.1038877905E+01   -1.1003151256E+01   -1.0967656231E+01   -1.0932390567E+01
-1.0897352018E+01   -1.0862538353E+01   -1.0827947359E+01   -1.0793576844E+01
-1.0759424631E+01   -1.0725488568E+01   -1.0691766523E+01   -1.0658256386E+01
-1.0624956073E+01   -1.0591863522E+01   -1.0558976701E+01   -1.0526293602E+01
-1.0493812244E+01   -1.0461530677E+01   -1.0429446977E+01   -1.0397559252E+01
-1.0365865639E+01   -1.0334364308E+01   -1.0303053452E+01   -1.0271931294E+01
-1.0240996090E+01   -1.0210246117E+01   -1.0179679710E+01   -1.0149295229E+01
-1.0119091056E+01   -1.0089065544E+01   -1.0059217174E+01   -1.0029544413E+01
-1.0000045703E+01   -9.9707197537E+00   -9.9415646279E+00   -9.9125784834E+00
-9.8837596685E+00   -9.8551061254E+00   -9.8266171768E+00   -9.7982923957E+00
-9.7701311312E+00   -9.7421332020E+00   -9.7142972738E+00   -9.6866212333E+00
-9.6591032571E+00   -9.6317412143E+00   -9.6045332427E+00   -9.5774783597E+00
-9.5505752821E+00   -9.5238228414E+00   -9.4972200175E+00   -9.4707653917E+00
-9.4444577352E+00   -9.4182958280E+00   -9.3922784438E+00   -9.3664044023E+00
-9.3406725250E+00   -9.3150816425E+00   -9.2896305942E+00   -9.2643182362E+00
-9.2391434406E+00   -9.2141050891E+00   -9.1892020758E+00   -9.1644333070E+00
-9.1397976998E+00   -9.1152941834E+00   -9.0909216985E+00   -9.0666791969E+00
-9.0425656417E+00   -9.0185800069E+00   -8.9947212775E+00   -8.9709884490E+00
-8.9473805277E+00   -8.9238965301E+00   -8.9005354832E+00   -8.8772964241E+00
-8.8541783997E+00   -8.8311804672E+00   -8.8083016932E+00   -8.7855411542E+00
-8.7628979361E+00   -8.7403711342E+00   -8.7179598531E+00   -8.6956632065E+00
-8.6734803173E+00   -8.6514103171E+00   -8.6294523464E+00   -8.6076055546E+00
-8.5858690994E+00   -8.5642421470E+00   -8.5427238723E+00   -8.5213134581E+00
-8.5000100956E+00   -8.4788129839E+00   -8.4577213301E+00   -8.4367343494E+00
-8.4158512644E+00   -8.3950713057E+00   -8.3743937112E+00   -8.3538177265E+00
-8.3333426046E+00   -8.3129676055E+00   -8.2926919968E+00   -8.2725150531E+00
-8.2524360559E+00   -8.2324542938E+00   -8.2125690623E+00   -8.1927796635E+00
-8.1730854064E+00   -8.1534856066E+00   -8.1339795861E+00   -8.1145666735E+00
-8.0952462038E+00   -8.0760175184E+00   -8.0568799646E+00   -8.0378328963E+00
-8.0188756731E+00   -8.0000076610E+00   -7.9812282317E+00   -7.9625367628E+00
-7.9439326379E+00   -7.9254152461E+00   -7.9069839823E+00   -7.8886382470E+00
-7.8703774464E+00   -7.8522009919E+00   -7.8341083005E+00   -7.8160987946E+00
-7.7981719018E+00   -7.7803270549E+00   -7.7625636920E+00   -7.7448812563E+00
-7.7272791959E+00   -7.7097569642E+00   -7.6923140193E+00   -7.6749498242E+00
-7.6576638470E+00   -7.6404555602E+00   -7.6233244412E+00   -7.6062699723E+00
-7.5892916400E+00   -7.5723889357E+00   -7.5555613552E+00   -7.5388083988E+00
-7.5221295711E+00   -7.5055243813E+00   -7.4889923428E+00   -7.4725329732E+00
-7.4561457944E+00   -7.4398303325E+00   -7.4235861179E+00   -7.4074126847E+00
-7.3913095714E+00   -7.3752763203E+00   -7.3593124779E+00   -7.3434175943E+00
-7.3275912236E+00   -7.3118329240E+00   -7.2961422571E+00   -7.2805187884E+00
-7.2649620872E+00   -7.2494717264E+00   -7.2340472825E+00   -7.2186883358E+00
-7.2033944697E+00   -7.1881652717E+00   -7.1730003324E+00   -7.1578992459E+00
-7.1428616098E+00   -7.1278870250E+00   -7.1129750958E+00   -7.0981254298E+00
-7.0833376378E+00   -7.0686113339E+00   -7.0539461354E+00   -7.0393416628E+00
-7.0247975395E+00   -7.0103133924E+00   -6.9958888513E+00   -6.9815235488E+00
-6.9672171208E+00   -6.9529692062E+00   -6.9387794466E+00   -6.9246474868E+00
-6.9105729743E+00   -6.8965555595E+00   -6.8825948956E+00   -6.8686906388E+00
-6.8548424477E+00   -6.8410499841E+00   -6.8273129121E+00   -6.8136308988E+00
-6.8000036137E+00   -6.7864307293E+00   -6.7729119203E+00   -6.7594468642E+00
-6.7460352411E+00   -6.7326767335E+00   -6.7193710265E+00   -6.7061178078E+00
-6.6929167672E+00   -6.6797675973E+00   -6.6666699929E+00   -6.6536236514E+00
-6.6406282722E+00   -6.6276835575E+00   -6.6147892114E+00   -6.6019449406E+00
-6.5891504540E+00   -6.5764054625E+00   -6.5637096797E+00   -6.5510628210E+00
-6.5384646041E+00   -6.5259147491E+00   -6.5134129778E+00   -6.5009590146E+00
-6.4885525857E+00   -6.4761934195E+00   -6.4638812463E+00   -6.4516157988E+00
-6.4393968113E+00   -6.4272240205E+00   -6.4150971648E+00   -6.4030159847E+00
-6.3909802227E+00   -6.3789896230E+00   -6.3670439320E+00   -6.3551428978E+00
-6.3432862705E+00   -6.3314738020E+00   -6.3197052461E+00   -6.3079803583E+00
-6.2962988961E+00   -6.2846606186E+00   -6.2730652868E+00   -6.2615126634E+00
-6.2500025130E+00   -6.2385346016E+00   -6.2271086973E+00   -6.2157245696E+00
-6.2043819898E+00   -6.1930807310E+00   -6.1818205676E+00   -6.1706012760E+00
-6.1594226339E+00   -6.1482844210E+00   -6.1371864183E+00   -6.1261284083E+00
-6.1151101754E+00   -6.1041315053E+00   -6.0931921852E+00   -6.0822920040E+00
-6.0714307521E+00   -6.0606082212E+00   -6.0498242046E+00   -6.0390784972E+00
-6.0283708951E+00   -6.0177011960E+00   -6.0070691990E+00   -5.9964747047E+00
-5.9859175149E+00   -5.9753974330E+00   -5.9649142636E+00   -5.9544678129E+00
-5.9440578882E+00   -5.9336842984E+00   -5.9233468534E+00   -5.9130453648E+00
-5.9027796453E+00   -5.8925495088E+00   -5.8823547707E+00   -5.8721952476E+00
-5.8620707573E+00   -5.8519811190E+00   -5.8419261530E+00   -5.8319056808E+00
-5.8219195254E+00   -5.8119675106E+00   -5.8020494618E+00   -5.7921652053E+00
-5.7823145687E+00   -5.7724973808E+00   -5.7627134715E+00   -5.7529626719E+00
-5.7432448141E+00   -5.7335597317E+00   -5.7239072589E+00   -5.7142872314E+00
-5.7046994859E+00   -5.6951438602E+00   -5.6856201930E+00   -5.6761283245E+00
</PP_LOCAL>
<PP_NONLOCAL>
<PP_BETA.1
type="real"
size="600"
columns="4"
index="1"
angular_momentum="0"
cutoff_radius_index=" 232"
cutoff_radius="    2.3100000000E+00" >
-3.6955138949E-10    7.8909168128E-02    1.5758965220E-01    2.3581381912E-01
3.1335612915E-01    3.8999416125E-01    4.6550961305E-01    5.3968926750E-01
6.1232591852E-01    6.8321924844E-01    7.5217665063E-01    8.1901399128E-01
8.8355630483E-01    9.4563841857E-01    1.0051055024E+00    1.0618135410E+00
1.1156297253E+00    1.1664327635E+00    1.2141131096E+00    1.2585731107E+00
1.2997270744E+00    1.3375012579E+00    1.3718337822E+00    1.4026744751E+00
1.4299846476E+00    1.4537368077E+00    1.4739143195E+00    1.4905110114E+00
1.5035307419E+00    1.5129869291E+00    1.5189020514E+00    1.5213071273E+00
1.5202411807E+00    1.5157507009E+00    1.5078891030E+00    1.4967161967E+00
1.4822976708E+00    1.4647045983E+00    1.4440129695E+00    1.4203032581E+00
1.3936600243E+00    1.3641715597E+00    1.3319295766E+00    1.2970289447E+00
1.2595674759E+00    1.2196457591E+00    1.1773670428E+00    1.1328371670E+00
1.0861645394E+00    1.0374601551E+00    9.8683765616E-01    9.3441342424E-01
8.8030670385E-01    8.2463974842E-01    7.6753798342E-01    7.0913017941E-01
6.4954862758E-01    5.8892931010E-01    5.2741205734E-01    4.6514068410E-01
4.0226309670E-01    3.3893136340E-01    2.7530174046E-01    2.1153464675E-01
1.4779458044E-01    8.4249971568E-02    2.1072965417E-02   -4.1560867830E-02
-1.0347290068E-01   -1.6448189566E-01   -2.2440453387E-01   -2.8305602509E-01
-3.4025079867E-01   -3.9580327312E-01   -4.4952870120E-01   -5.0124408616E-01
-5.5076916331E-01   -5.9792744041E-01   -6.4254728870E-01   -6.8446307581E-01
-7.2351633053E-01   -7.5955692867E-01   -7.9244428840E-01   -8.2204856280E-01
-8.4825181689E-01   -8.7094917596E-01   -8.9004993173E-01   -9.0547859295E-01
-9.1717586690E-01   -9.2509955864E-01   -9.2922537532E-01   -9.2954762311E-01
-9.2607978546E-01   -9.1885497197E-01   -9.0792622826E-01   -8.9336669857E-01
-8.7526963379E-01   -8.5374823943E-01   -8.2893535922E-01   -8.0098299198E-01
-7.7006164070E-01   -7.3635949495E-01   -7.0008144918E-01   -6.6144796136E-01
-6.2069375831E-01   -5.7806639572E-01   -5.3382468243E-01   -4.8823698063E-01
-4.4157939466E-01   -3.9413386294E-01   -3.4618616856E-01   -2.9802388557E-01
-2.4993427874E-01   -2.0220217551E-01   -1.5510782951E-01   -1.0892479535E-01
-6.3917834978E-02   -2.0340875275E-02    2.1564962883E-02    6.1573244831E-02
9.9473992713E-02    1.3507532866E-01    1.6820497327E-01    1.9871158401E-01
2.2646591962E-01    2.5136181709E-01    2.7331697104E-01    2.9227350698E-01
3.0819834046E-01    3.2108331817E-01    3.3094513916E-01    3.3782505434E-01
3.4178834749E-01    3.4292360302E-01    3.4134176464E-01    3.3717499657E-01
3.3057535745E-01    3.2171329898E-01    3.1077600692E-01    2.9796559913E-01
2.8349720029E-01    2.6759691406E-01    2.5049971210E-01    2.3244726461E-01
2.1368573371E-01    1.9446355474E-01    1.7502923070E-01    1.5562915920E-01
1.3650553405E-01    1.1789423637E-01    1.0002277047E-01    8.3109629607E-02
6.7360637046E-02    5.2963886984E-02    4.0085444954E-02    2.8866254790E-02
1.9419014778E-02    1.1788592300E-02    6.0700759227E-03    2.4464934881E-03
6.8197279221E-04    6.7726895969E-05   -1.8684142724E-05    1.8105999323E-05
1.1037044021E-05   -2.1790649128E-06   -1.2941808052E-06   -7.8705354707E-07
-3.8067239935E-07    0.0000000000E+00    0.0000000000E+00    0.0000000000E+00
0.0000000000E+00    0.0000000000E+00    0.0000000000E+00    0.0000000000E+00
0.0000000000E+00    0.0000000000E+00    0.0000000000E+00    0.0000000000E+00
0.0000000000E+00    0.0000000000E+00    0.0000000000E+00    0.0000000000E+00
0.0000000000E+00    0.0000000000E+00    0.0000000000E+00    0.0000000000E+00
0.0000000000E+00    0.0000000000E+00    0.0000000000E+00    0.0000000000E+00
0.0000000000E+00    0.0000000000E+00    0.0000000000E+00    0.0000000000E+00
0.0000000000E+00    0.0000000000E+00    0.0000000000E+00    0.0000000000E+00
0.0000000000E+00    0.0000000000E+00    0.0000000000E+00    0.0000000000E+00