<UPF version="2.0.1">
<PP_INFO>
NOTE!!!!
This file is trimmed with a mesh size of 600 from the original version.
Trimming performed at 2023-03-31 09:10:05.126654 by trim_upf.py version 0.1.0

This pseudopotential file has been produced using the code
ONCVPSP  (Optimized Norm-Conservinng Vanderbilt PSeudopotential)
scalar-relativistic version 3.3.0 08/16/2017 by D. R. Hamann
The code is available through a link at URL www.mat-simresearch.com.
Documentation with the package provides a full discription of the
input data below.
While it is not required under the terms of the GNU GPL, it is
suggested that you cite D. R. Hamann, Phys. Rev. B 88, 085117 (2013)
in any publication using these pseudopotentials.
<PP_INPUTFILE>
# ATOM AND REFERENCE CONFIGURATION
# atsym  z   nc   nv     iexc    psfile
K 19.00    3    3       4      upf
#
#   n    l    f        energy (Ha)
1    0    2.00
2    0    2.00
2    1    6.00
3    0    2.00
3    1    6.00
4    0    1.00
#
# PSEUDOPOTENTIAL AND OPTIMIZATION
# lmax
2
#
#   l,   rc,      ep,       ncon, nbas, qcut
0   1.35000  -1.29884    4    8   8.20000
1   1.45000  -0.69139    4    8   8.60000
2   1.60000   0.05000    4    8   8.20000
#
# LOCAL POTENTIAL
# lloc, lpopt,  rc(5),   dvloc0
4    5   1.10000      0.00000
#
# VANDERBILT-KLEINMAN-BYLANDER PROJECTORs
# l, nproj, debl
0    2   1.21361
1    2   0.80000
2    2   0.50000
#
# MODEL CORE CHARGE
# icmod, fcfact, rcfact
3   5.00000   1.40000
#
# LOG DERIVATIVE ANALYSIS
# epsh1, epsh2, depsh
-12.00   12.00    0.02
#
# OUTPUT GRID
# rlmax, drl
4.00    0.01
#
# TEST CONFIGURATIONS
# ncnf
0
# nvcnf
#   n    l    f
</PP_INPUTFILE>
</PP_INFO>
<!--                               -->
<!-- END OF HUMAN READABLE SECTION -->
<!--                               -->
<PP_HEADER
generated="Generated using ONCVPSP code by D. R. Hamann"
author="anonymous"
date="171031"
comment=""
element="K "
pseudo_type="NC"
relativistic="scalar"
is_ultrasoft="F"
is_paw="F"
is_coulomb="F"
has_so="F"
has_wfc="F"
has_gipaw="F"
core_correction="T"
functional="PBE"
z_valence="    9.00"
total_psenergy="  -5.67144331697E+01"
rho_cutoff="   2.22100000000E+01"
l_max="2"
l_local="-1"
mesh_size="   600"
number_of_wfc="3"
number_of_proj="6"/>
<PP_MESH>
<PP_R type="real"  size="600" columns="8">
0.0000    0.0100    0.0200    0.0300    0.0400    0.0500    0.0600    0.0700
0.0800    0.0900    0.1000    0.1100    0.1200    0.1300    0.1400    0.1500
0.1600    0.1700    0.1800    0.1900    0.2000    0.2100    0.2200    0.2300
0.2400    0.2500    0.2600    0.2700    0.2800    0.2900    0.3000    0.3100
0.3200    0.3300    0.3400    0.3500    0.3600    0.3700    0.3800    0.3900
0.4000    0.4100    0.4200    0.4300    0.4400    0.4500    0.4600    0.4700
0.4800    0.4900    0.5000    0.5100    0.5200    0.5300    0.5400    0.5500
0.5600    0.5700    0.5800    0.5900    0.6000    0.6100    0.6200    0.6300
0.6400    0.6500    0.6600    0.6700    0.6800    0.6900    0.7000    0.7100
0.7200    0.7300    0.7400    0.7500    0.7600    0.7700    0.7800    0.7900
0.8000    0.8100    0.8200    0.8300    0.8400    0.8500    0.8600    0.8700
0.8800    0.8900    0.9000    0.9100    0.9200    0.9300    0.9400    0.9500
0.9600    0.9700    0.9800    0.9900    1.0000    1.0100    1.0200    1.0300
1.0400    1.0500    1.0600    1.0700    1.0800    1.0900    1.1000    1.1100
1.1200    1.1300    1.1400    1.1500    1.1600    1.1700    1.1800    1.1900
1.2000    1.2100    1.2200    1.2300    1.2400    1.2500    1.2600    1.2700
1.2800    1.2900    1.3000    1.3100    1.3200    1.3300    1.3400    1.3500
1.3600    1.3700    1.3800    1.3900    1.4000    1.4100    1.4200    1.4300
1.4400    1.4500    1.4600    1.4700    1.4800    1.4900    1.5000    1.5100
1.5200    1.5300    1.5400    1.5500    1.5600    1.5700    1.5800    1.5900
1.6000    1.6100    1.6200    1.6300    1.6400    1.6500    1.6600    1.6700
1.6800    1.6900    1.7000    1.7100    1.7200    1.7300    1.7400    1.7500
1.7600    1.7700    1.7800    1.7900    1.8000    1.8100    1.8200    1.8300
1.8400    1.8500    1.8600    1.8700    1.8800    1.8900    1.9000    1.9100
1.9200    1.9300    1.9400    1.9500    1.9600    1.9700    1.9800    1.9900
2.0000    2.0100    2.0200    2.0300    2.0400    2.0500    2.0600    2.0700
2.0800    2.0900    2.1000    2.1100    2.1200    2.1300    2.1400    2.1500
2.1600    2.1700    2.1800    2.1900    2.2000    2.2100    2.2200    2.2300
2.2400    2.2500    2.2600    2.2700    2.2800    2.2900    2.3000    2.3100
2.3200    2.3300    2.3400    2.3500    2.3600    2.3700    2.3800    2.3900
2.4000    2.4100    2.4200    2.4300    2.4400    2.4500    2.4600    2.4700
2.4800    2.4900    2.5000    2.5100    2.5200    2.5300    2.5400    2.5500
2.5600    2.5700    2.5800    2.5900    2.6000    2.6100    2.6200    2.6300
2.6400    2.6500    2.6600    2.6700    2.6800    2.6900    2.7000    2.7100
2.7200    2.7300    2.7400    2.7500    2.7600    2.7700    2.7800    2.7900
2.8000    2.8100    2.8200    2.8300    2.8400    2.8500    2.8600    2.8700
2.8800    2.8900    2.9000    2.9100    2.9200    2.9300    2.9400    2.9500
2.9600    2.9700    2.9800    2.9900    3.0000    3.0100    3.0200    3.0300
3.0400    3.0500    3.0600    3.0700    3.0800    3.0900    3.1000    3.1100
3.1200    3.1300    3.1400    3.1500    3.1600    3.1700    3.1800    3.1900
3.2000    3.2100    3.2200    3.2300    3.2400    3.2500    3.2600    3.2700
3.2800    3.2900    3.3000    3.3100    3.3200    3.3300    3.3400    3.3500
3.3600    3.3700    3.3800    3.3900    3.4000    3.4100    3.4200    3.4300
3.4400    3.4500    3.4600    3.4700    3.4800    3.4900    3.5000    3.5100
3.5200    3.5300    3.5400    3.5500    3.5600    3.5700    3.5800    3.5900
3.6000    3.6100    3.6200    3.6300    3.6400    3.6500    3.6600    3.6700
3.6800    3.6900    3.7000    3.7100    3.7200    3.7300    3.7400    3.7500
3.7600    3.7700    3.7800    3.7900    3.8000    3.8100    3.8200    3.8300
3.8400    3.8500    3.8600    3.8700    3.8800    3.8900    3.9000    3.9100
3.9200    3.9300    3.9400    3.9500    3.9600    3.9700    3.9800    3.9900
4.0000    4.0100    4.0200    4.0300    4.0400    4.0500    4.0600    4.0700
4.0800    4.0900    4.1000    4.1100    4.1200    4.1300    4.1400    4.1500
4.1600    4.1700    4.1800    4.1900    4.2000    4.2100    4.2200    4.2300
4.2400    4.2500    4.2600    4.2700    4.2800    4.2900    4.3000    4.3100
4.3200    4.3300    4.3400    4.3500    4.3600    4.3700    4.3800    4.3900
4.4000    4.4100    4.4200    4.4300    4.4400    4.4500    4.4600    4.4700
4.4800    4.4900    4.5000    4.5100    4.5200    4.5300    4.5400    4.5500
4.5600    4.5700    4.5800    4.5900    4.6000    4.6100    4.6200    4.6300
4.6400    4.6500    4.6600    4.6700    4.6800    4.6900    4.7000    4.7100
4.7200    4.7300    4.7400    4.7500    4.7600    4.7700    4.7800    4.7900
4.8000    4.8100    4.8200    4.8300    4.8400    4.8500    4.8600    4.8700
4.8800    4.8900    4.9000    4.9100    4.9200    4.9300    4.9400    4.9500
4.9600    4.9700    4.9800    4.9900    5.0000    5.0100    5.0200    5.0300
5.0400    5.0500    5.0600    5.0700    5.0800    5.0900    5.1000    5.1100
5.1200    5.1300    5.1400    5.1500    5.1600    5.1700    5.1800    5.1900
5.2000    5.2100    5.2200    5.2300    5.2400    5.2500    5.2600    5.2700
5.2800    5.2900    5.3000    5.3100    5.3200    5.3300    5.3400    5.3500
5.3600    5.3700    5.3800    5.3900    5.4000    5.4100    5.4200    5.4300
5.4400    5.4500    5.4600    5.4700    5.4800    5.4900    5.5000    5.5100
5.5200    5.5300    5.5400    5.5500    5.5600    5.5700    5.5800    5.5900
5.6000    5.6100    5.6200    5.6300    5.6400    5.6500    5.6600    5.6700
5.6800    5.6900    5.7000    5.7100    5.7200    5.7300    5.7400    5.7500
5.7600    5.7700    5.7800    5.7900    5.8000    5.8100    5.8200    5.8300
5.8400    5.8500    5.8600    5.8700    5.8800    5.8900    5.9000    5.9100
5.9200    5.9300    5.9400    5.9500    5.9600    5.9700    5.9800    5.9900
</PP_R>
<PP_RAB type="real"  size="600" columns="8">
0.0100    0.0100    0.0100    0.0100    0.0100    0.0100    0.0100    0.0100
0.0100    0.0100    0.0100    0.0100    0.0100    0.0100    0.0100    0.0100
0.0100    0.0100    0.0100    0.0100    0.0100    0.0100    0.0100    0.0100
0.0100    0.0100    0.0100    0.0100    0.0100    0.0100    0.0100    0.0100
0.0100    0.0100    0.0100    0.0100    0.0100    0.0100    0.0100    0.0100
0.0100    0.0100    0.0100    0.0100    0.0100    0.0100    0.0100    0.0100
0.0100    0.0100    0.0100    0.0100    0.0100    0.0100    0.0100    0.0100
0.0100    0.0100    0.0100    0.0100    0.0100    0.0100    0.0100    0.0100
0.0100    0.0100    0.0100    0.0100    0.0100    0.0100    0.0100    0.0100
0.0100    0.0100    0.0100    0.0100    0.0100    0.0100    0.0100    0.0100
0.0100    0.0100    0.0100    0.0100    0.0100    0.0100    0.0100    0.0100
0.0100    0.0100    0.0100    0.0100    0.0100    0.0100    0.0100    0.0100
0.0100    0.0100    0.0100    0.0100    0.0100    0.0100    0.0100    0.0100
0.0100    0.0100    0.0100    0.0100    0.0100    0.0100    0.0100    0.0100
0.0100    0.0100    0.0100    0.0100    0.0100    0.0100    0.0100    0.0100
0.0100    0.0100    0.0100    0.0100    0.0100    0.0100    0.0100    0.0100
0.0100    0.0100    0.0100    0.0100    0.0100    0.0100    0.0100    0.0100
0.0100    0.0100    0.0100    0.0100    0.0100    0.0100    0.0100    0.0100
0.0100    0.0100    0.0100    0.0100    0.0100    0.0100    0.0100    0.0100
0.0100    0.0100    0.0100    0.0100    0.0100    0.0100    0.0100    0.0100
0.0100    0.0100    0.0100    0.0100    0.0100    0.0100    0.0100    0.0100
0.0100    0.0100    0.0100    0.0100    0.0100    0.0100    0.0100    0.0100
0.0100    0.0100    0.0100    0.0100    0.0100    0.0100    0.0100    0.0100
0.0100    0.0100    0.0100    0.0100    0.0100    0.0100    0.0100    0.0100
0.0100    0.0100    0.0100    0.0100    0.0100    0.0100    0.0100    0.0100
0.0100    0.0100    0.0100    0.0100    0.0100    0.0100    0.0100    0.0100
0.0100    0.0100    0.0100    0.0100    0.0100    0.0100    0.0100    0.0100
0.0100    0.0100    0.0100    0.0100    0.0100    0.0100    0.0100    0.0100
0.0100    0.0100    0.0100    0.0100    0.0100    0.0100    0.0100    0.0100
0.0100    0.0100    0.0100    0.0100    0.0100    0.0100    0.0100    0.0100
0.0100    0.0100    0.0100    0.0100    0.0100    0.0100    0.0100    0.0100
0.0100    0.0100    0.0100    0.0100    0.0100    0.0100    0.0100    0.0100
0.0100    0.0100    0.0100    0.0100    0.0100    0.0100    0.0100    0.0100
0.0100    0.0100    0.0100    0.0100    0.0100    0.0100    0.0100    0.0100
0.0100    0.0100    0.0100    0.0100    0.0100    0.0100    0.0100    0.0100
0.0100    0.0100    0.0100    0.0100    0.0100    0.0100    0.0100    0.0100
0.0100    0.0100    0.0100    0.0100    0.0100    0.0100    0.0100    0.0100
0.0100    0.0100    0.0100    0.0100    0.0100    0.0100    0.0100    0.0100
0.0100    0.0100    0.0100    0.0100    0.0100    0.0100    0.0100    0.0100
0.0100    0.0100    0.0100    0.0100    0.0100    0.0100    0.0100    0.0100
0.0100    0.0100    0.0100    0.0100    0.0100    0.0100    0.0100    0.0100
0.0100    0.0100    0.0100    0.0100    0.0100    0.0100    0.0100    0.0100
0.0100    0.0100    0.0100    0.0100    0.0100    0.0100    0.0100    0.0100
0.0100    0.0100    0.0100    0.0100    0.0100    0.0100    0.0100    0.0100
0.0100    0.0100    0.0100    0.0100    0.0100    0.0100    0.0100    0.0100
0.0100    0.0100    0.0100    0.0100    0.0100    0.0100    0.0100    0.0100
0.0100    0.0100    0.0100    0.0100    0.0100    0.0100    0.0100    0.0100
0.0100    0.0100    0.0100    0.0100    0.0100    0.0100    0.0100    0.0100
0.0100    0.0100    0.0100    0.0100    0.0100    0.0100    0.0100    0.0100
0.0100    0.0100    0.0100    0.0100    0.0100    0.0100    0.0100    0.0100
0.0100    0.0100    0.0100    0.0100    0.0100    0.0100    0.0100    0.0100
0.0100    0.0100    0.0100    0.0100    0.0100    0.0100    0.0100    0.0100
0.0100    0.0100    0.0100    0.0100    0.0100    0.0100    0.0100    0.0100
0.0100    0.0100    0.0100    0.0100    0.0100    0.0100    0.0100    0.0100
0.0100    0.0100    0.0100    0.0100    0.0100    0.0100    0.0100    0.0100
0.0100    0.0100    0.0100    0.0100    0.0100    0.0100    0.0100    0.0100
0.0100    0.0100    0.0100    0.0100    0.0100    0.0100    0.0100    0.0100
0.0100    0.0100    0.0100    0.0100    0.0100    0.0100    0.0100    0.0100
0.0100    0.0100    0.0100    0.0100    0.0100    0.0100    0.0100    0.0100
0.0100    0.0100    0.0100    0.0100    0.0100    0.0100    0.0100    0.0100
0.0100    0.0100    0.0100    0.0100    0.0100    0.0100    0.0100    0.0100
0.0100    0.0100    0.0100    0.0100    0.0100    0.0100    0.0100    0.0100
0.0100    0.0100    0.0100    0.0100    0.0100    0.0100    0.0100    0.0100
0.0100    0.0100    0.0100    0.0100    0.0100    0.0100    0.0100    0.0100
0.0100    0.0100    0.0100    0.0100    0.0100    0.0100    0.0100    0.0100
0.0100    0.0100    0.0100    0.0100    0.0100    0.0100    0.0100    0.0100
0.0100    0.0100    0.0100    0.0100    0.0100    0.0100    0.0100    0.0100
0.0100    0.0100    0.0100    0.0100    0.0100    0.0100    0.0100    0.0100
0.0100    0.0100    0.0100    0.0100    0.0100    0.0100    0.0100    0.0100
0.0100    0.0100    0.0100    0.0100    0.0100    0.0100    0.0100    0.0100
0.0100    0.0100    0.0100    0.0100    0.0100    0.0100    0.0100    0.0100
0.0100    0.0100    0.0100    0.0100    0.0100    0.0100    0.0100    0.0100
0.0100    0.0100    0.0100    0.0100    0.0100    0.0100    0.0100    0.0100
0.0100    0.0100    0.0100    0.0100    0.0100    0.0100    0.0100    0.0100
0.0100    0.0100    0.0100    0.0100    0.0100    0.0100    0.0100    0.0100
</PP_RAB>
</PP_MESH>
<PP_LOCAL type="real"  size="600" columns="4">
-3.3581279308E+01   -3.3578826902E+01   -3.3571471793E+01   -3.3559220325E+01
-3.3542083014E+01   -3.3520074477E+01   -3.3493213327E+01   -3.3461522040E+01
-3.3425026808E+01   -3.3383757361E+01   -3.3337746783E+01   -3.3287031306E+01
-3.3231650103E+01   -3.3171645071E+01   -3.3107060618E+01   -3.3037943445E+01
-3.2964342337E+01   -3.2886307964E+01   -3.2803892688E+01   -3.2717150382E+01
-3.2626136270E+01   -3.2530906770E+01   -3.2431519363E+01   -3.2328032472E+01
-3.2220505356E+01   -3.2108998028E+01   -3.1993571174E+01   -3.1874286102E+01
-3.1751204692E+01   -3.1624389364E+01   -3.1493903060E+01   -3.1359809231E+01
-3.1222171838E+01   -3.1081055362E+01   -3.0936524817E+01   -3.0788645776E+01
-3.0637484397E+01   -3.0483107462E+01   -3.0325582410E+01   -3.0164977387E+01
-3.0001361287E+01   -2.9834803805E+01   -2.9665375488E+01   -2.9493147787E+01
-2.9318193118E+01   -2.9140584915E+01   -2.8960397689E+01   -2.8777707091E+01
-2.8592589969E+01   -2.8405124425E+01   -2.8215389883E+01   -2.8023467142E+01
-2.7829438437E+01   -2.7633387498E+01   -2.7435399604E+01   -2.7235561639E+01
-2.7033962141E+01   -2.6830691349E+01   -2.6625841249E+01   -2.6419505605E+01
-2.6211779996E+01   -2.6002761831E+01   -2.5792550364E+01   -2.5581246695E+01
-2.5368953753E+01   -2.5155776276E+01   -2.4941820756E+01   -2.4727195387E+01
-2.4512009974E+01   -2.4296375837E+01   -2.4080405682E+01   -2.3864213455E+01
-2.3647914177E+01   -2.3431623749E+01   -2.3215458744E+01   -2.2999536176E+01
-2.2783973256E+01   -2.2568887128E+01   -2.2354394597E+01   -2.2140611845E+01
-2.1927654145E+01   -2.1715635568E+01   -2.1504668691E+01   -2.1294864306E+01
-2.1086331135E+01   -2.0879175551E+01   -2.0673501304E+01   -2.0469409261E+01
-2.0266997145E+01   -2.0066359293E+01   -1.9867586417E+01   -1.9670765370E+01
-1.9475978927E+01   -1.9283305558E+01   -1.9092819218E+01   -1.8904589132E+01
-1.8718679577E+01   -1.8535149674E+01   -1.8354053167E+01   -1.8175438207E+01
-1.7999347125E+01   -1.7825816207E+01   -1.7654875457E+01   -1.7486548363E+01
-1.7320851645E+01   -1.7157795013E+01   -1.6997380908E+01   -1.6839604245E+01
-1.6684452147E+01   -1.6531903683E+01   -1.6381929649E+01   -1.6234492213E+01
-1.6089544562E+01   -1.5947035207E+01   -1.5806912557E+01   -1.5669127385E+01
-1.5533631821E+01   -1.5400379351E+01   -1.5269324580E+01   -1.5140423088E+01
-1.5013631287E+01   -1.4888906317E+01   -1.4766205951E+01   -1.4645488530E+01
-1.4526712908E+01   -1.4409838416E+01   -1.4294824838E+01   -1.4181632402E+01
-1.4070221776E+01   -1.3960554074E+01   -1.3852590874E+01   -1.3746294232E+01
-1.3641626753E+01   -1.3538551501E+01   -1.3437032133E+01   -1.3337032730E+01
-1.3238519669E+01   -1.3141462561E+01   -1.3045834726E+01   -1.2951609911E+01
-1.2858757171E+01   -1.2767243613E+01   -1.2677035956E+01   -1.2588103731E+01
-1.2500418398E+01   -1.2413949873E+01   -1.2328672211E+01   -1.2244565531E+01
-1.2161616340E+01   -1.2079813472E+01   -1.1999137244E+01   -1.1919562564E+01
-1.1841062473E+01   -1.1763611759E+01   -1.1687190458E+01   -1.1611778024E+01
-1.1537352004E+01   -1.1463891128E+01   -1.1391375222E+01   -1.1319784401E+01
-1.1249099225E+01   -1.1179300828E+01   -1.1110370876E+01   -1.1042291562E+01
-1.0975045610E+01   -1.0908616273E+01   -1.0842987325E+01   -1.0778143058E+01
-1.0714068271E+01   -1.0650748262E+01   -1.0588168815E+01   -1.0526316191E+01
-1.0465177106E+01   -1.0404738724E+01   -1.0344988636E+01   -1.0285914843E+01
-1.0227505738E+01   -1.0169750087E+01   -1.0112637013E+01   -1.0056155970E+01
-1.0000296732E+01   -9.9450493657E+00   -9.8904042164E+00   -9.8363518873E+00
-9.7828832222E+00   -9.7299892876E+00   -9.6776613564E+00   -9.6258908921E+00
-9.5746695341E+00   -9.5239890848E+00   -9.4738414966E+00   -9.4242188613E+00
-9.3751134003E+00   -9.3265174560E+00   -9.2784234848E+00   -9.2308240510E+00
-9.1837118222E+00   -9.1370795655E+00   -9.0909201452E+00   -9.0452265213E+00
-8.9999917488E+00   -8.9552089779E+00   -8.9108714550E+00   -8.8669725235E+00
-8.8235056267E+00   -8.7804643087E+00   -8.7378422176E+00   -8.6956331075E+00
-8.6538308409E+00   -8.6124293910E+00   -8.5714228436E+00   -8.5308053985E+00
-8.4905713713E+00   -8.4507151938E+00   -8.4112314147E+00   -8.3721146993E+00
-8.3333598290E+00   -8.2949616999E+00   -8.2569153217E+00   -8.2192158152E+00
-8.1818584097E+00   -8.1448384406E+00   -8.1081513457E+00   -8.0717926617E+00
-8.0357580206E+00   -8.0000431455E+00   -7.9646438470E+00   -7.9295560184E+00
-7.8947756323E+00   -7.8602987364E+00   -7.8261214491E+00   -7.7922399568E+00
-7.7586505092E+00   -7.7253494171E+00   -7.6923330489E+00   -7.6595978279E+00
-7.6271402301E+00   -7.5949567821E+00   -7.5630440595E+00   -7.5313986851E+00
-7.5000173283E+00   -7.4688967040E+00   -7.4380335720E+00   -7.4074247368E+00
-7.3770670474E+00   -7.3469573973E+00   -7.3170927247E+00   -7.2874700130E+00
-7.2580862908E+00   -7.2289386326E+00   -7.2000241587E+00   -7.1713400363E+00
-7.1428834791E+00   -7.1146517479E+00   -7.0866421504E+00   -7.0588520414E+00
-7.0312788227E+00   -7.0039199423E+00   -6.9767728945E+00   -6.9498352190E+00
-6.9231044998E+00   -6.8965783649E+00   -6.8702544848E+00   -6.8441305711E+00
-6.8182043758E+00   -6.7924736892E+00   -6.7669363390E+00   -6.7415901885E+00
-6.7164331344E+00   -6.6914631062E+00   -6.6666780589E+00   -6.6420759930E+00
-6.6176549293E+00   -6.5934129298E+00   -6.5693480291E+00   -6.5454582899E+00
-6.5217418101E+00   -6.4981967560E+00   -6.4748213665E+00   -6.4516138925E+00
-6.4285725871E+00   -6.4056959186E+00   -6.3829822167E+00   -6.3604299873E+00
-6.3380368828E+00   -6.3158006275E+00   -6.2937188680E+00   -6.2717897938E+00
-6.2500123304E+00   -6.2283852991E+00   -6.2069078379E+00   -6.1855781605E+00
-6.1643947180E+00   -6.1433558488E+00   -6.1224600363E+00   -6.1017058789E+00
-6.0810919473E+00   -6.0606168531E+00   -6.0402791808E+00   -6.0200775515E+00
-6.0000106052E+00   -5.9800769997E+00   -5.9602754099E+00   -5.9406045288E+00
-5.9210630661E+00   -5.9016497486E+00   -5.8823633200E+00   -5.8632025399E+00
-5.8441661843E+00   -5.8252530449E+00   -5.8064619289E+00   -5.7877916590E+00
-5.7692410728E+00   -5.7508090228E+00   -5.7324943760E+00   -5.7142960140E+00
-5.6962128323E+00   -5.6782437403E+00   -5.6603876613E+00   -5.6426435319E+00
-5.6250103021E+00   -5.6074869349E+00   -5.5900724062E+00   -5.5727657045E+00
-5.5555658310E+00   -5.5384717988E+00   -5.5214826335E+00   -5.5045973724E+00
-5.4878150647E+00   -5.4711347709E+00   -5.4545555633E+00   -5.4380765252E+00
-5.4216967509E+00   -5.4054153457E+00   -5.3892314256E+00   -5.3731441174E+00
-5.3571525581E+00   -5.3412558950E+00   -5.3254532856E+00   -5.3097438974E+00
-5.2941269078E+00   -5.2786015037E+00   -5.2631668818E+00   -5.2478222480E+00
-5.2325668176E+00   -5.2173998152E+00   -5.2023204741E+00   -5.1873280368E+00
-5.1724217543E+00   -5.1576008864E+00   -5.1428647013E+00   -5.1282124757E+00
-5.1136434946E+00   -5.0991570508E+00   -5.0847524456E+00   -5.0704289878E+00
-5.0561859943E+00   -5.0420227894E+00   -5.0279387051E+00   -5.0139330809E+00
-5.0000052637E+00   -4.9861546074E+00   -4.9723804731E+00   -4.9586822292E+00
-4.9450592506E+00   -4.9315109195E+00   -4.9180366244E+00   -4.9046357608E+00
-4.8913077305E+00   -4.8780519418E+00   -4.8648678095E+00   -4.8517547545E+00
-4.8387122040E+00   -4.8257395914E+00   -4.8128363558E+00   -4.8000019427E+00
-4.7872358030E+00   -4.7745373938E+00   -4.7619061776E+00   -4.7493416227E+00
-4.7368432029E+00   -4.7244103976E+00   -4.7120426916E+00   -4.6997395748E+00
-4.6875005427E+00   -4.6753250960E+00   -4.6632127403E+00   -4.6511629865E+00
-4.6391753505E+00   -4.6272493531E+00   -4.6153845201E+00   -4.6035803820E+00
-4.5918364742E+00   -4.5801523367E+00   -4.5685275143E+00   -4.5569615563E+00
-4.5454540166E+00   -4.5340044536E+00   -4.5226124301E+00   -4.5112775133E+00
-4.4999992747E+00   -4.4887772901E+00   -4.4776111395E+00   -4.4665004072E+00
-4.4554446814E+00   -4.4444435545E+00   -4.4334966229E+00   -4.4226034870E+00
-4.4117637511E+00   -4.4009770233E+00   -4.3902429157E+00   -4.3795610440E+00
-4.3689310278E+00   -4.3583524902E+00   -4.3478250580E+00   -4.3373483619E+00
-4.3269220357E+00   -4.3165457169E+00   -4.3062190467E+00   -4.2959416694E+00
-4.2857132328E+00   -4.2755333881E+00   -4.2654017899E+00   -4.2553180958E+00
-4.2452819669E+00   -4.2352930673E+00   -4.2253510643E+00   -4.2154556286E+00
-4.2056064335E+00   -4.1958031557E+00   -4.1860454748E+00   -4.1763330734E+00
-4.1666656370E+00   -4.1570428540E+00   -4.1474644157E+00   -4.1379300163E+00
-4.1284393527E+00   -4.1189921248E+00   -4.1095880348E+00   -4.1002267881E+00
-4.0909080925E+00   -4.0816316585E+00   -4.0723971993E+00   -4.0632044305E+00
-4.0540530706E+00   -4.0449428403E+00   -4.0358734629E+00   -4.0268446643E+00
-4.0178561728E+00   -4.0089077189E+00   -3.9999990359E+00   -3.9911298590E+00
-3.9822999262E+00   -3.9735089776E+00   -3.9647567554E+00   -3.9560430044E+00
-3.9473674715E+00   -3.9387299058E+00   -3.9301300586E+00   -3.9215676834E+00
-3.9130425358E+00   -3.9045543735E+00   -3.8961029563E+00   -3.8876880462E+00
-3.8793094072E+00   -3.8709668052E+00   -3.8626600083E+00   -3.8543887864E+00
-3.8461529115E+00   -3.8379521575E+00   -3.8297863002E+00   -3.8216551173E+00
-3.8135583885E+00   -3.8054958953E+00   -3.7974674209E+00   -3.7894727505E+00
-3.7815116711E+00   -3.7735839714E+00   -3.7656894420E+00   -3.7578278749E+00
-3.7499990644E+00   -3.7422028060E+00   -3.7344388971E+00   -3.7267071369E+00
-3.7190073260E+00   -3.7113392669E+00   -3.7037027635E+00   -3.6960976215E+00
-3.6885236480E+00   -3.6809806519E+00   -3.6734684435E+00   -3.6659868347E+00
-3.6585356388E+00   -3.6511146710E+00   -3.6437237474E+00   -3.6363626862E+00
-3.6290313067E+00   -3.6217294296E+00   -3.6144568774E+00   -3.6072134736E+00
-3.5999990434E+00   -3.5928134134E+00   -3.5856564113E+00   -3.5785278665E+00
-3.5714276095E+00   -3.5643554724E+00   -3.5573112884E+00   -3.5502948921E+00
-3.5433061194E+00   -3.5363448075E+00   -3.5294107949E+00   -3.5225039213E+00
-3.5156240277E+00   -3.5087709562E+00   -3.5019445505E+00   -3.4951446550E+00
-3.4883711158E+00   -3.4816237798E+00   -3.4749024954E+00   -3.4682071119E+00
-3.4615374798E+00   -3.4548934510E+00   -3.4482748783E+00   -3.4416816156E+00
-3.4351135181E+00   -3.4285704420E+00   -3.4220522444E+00   -3.4155587840E+00
-3.4090899200E+00   -3.4026455129E+00   -3.3962254245E+00   -3.3898295172E+00
-3.3834576547E+00   -3.3771097017E+00   -3.3707855238E+00   -3.3644849878E+00
-3.3582079613E+00   -3.3519543129E+00   -3.3457239124E+00   -3.3395166302E+00
-3.3333323381E+00   -3.3271709085E+00   -3.3210322148E+00   -3.3149161314E+00
-3.3088225337E+00   -3.3027512979E+00   -3.2967023011E+00   -3.2906754213E+00
-3.2846705375E+00   -3.2786875295E+00   -3.2727262779E+00   -3.2667866643E+00
-3.2608685712E+00   -3.2549718816E+00   -3.2490964798E+00   -3.2432422507E+00
-3.2374090800E+00   -3.2315968544E+00   -3.2258054611E+00   -3.2200347885E+00
-3.2142847254E+00   -3.2085551618E+00   -3.2028459881E+00   -3.1971570957E+00
-3.1914883768E+00   -3.1858397241E+00   -3.1802110315E+00   -3.1746021932E+00
-3.1690131044E+00   -3.1634436609E+00   -3.1578937595E+00   -3.1523632973E+00
-3.1468521724E+00   -3.1413602837E+00   -3.1358875305E+00   -3.1304338130E+00
-3.1249990321E+00   -3.1195830893E+00   -3.1141858869E+00   -3.1088073277E+00
-3.1034473153E+00   -3.0981057540E+00   -3.0927825486E+00   -3.0874776047E+00
-3.0821908285E+00   -3.0769221267E+00   -3.0716714070E+00   -3.0664385773E+00
-3.0612235464E+00   -3.0560262236E+00   -3.0508465190E+00   -3.0456843430E+00
-3.0405396068E+00   -3.0354122222E+00   -3.0303021017E+00   -3.0252091580E+00
-3.0201333048E+00   -3.0150744562E+00   -3.0100325269E+00   -3.0050074321E+00
</PP_LOCAL>
<PP_NONLOCAL>
<PP_BETA.1
type="real"
size="600"
columns="4"
index="1"
angular_momentum="0"
cutoff_radius_index=" 168"
cutoff_radius="    1.6700000000E+00" >
9.7197250248E-11    5.8220632468E-02    1.1636998988E-01    1.7437671458E-01
2.3216928597E-01    2.8967594475E-01    3.4682462377E-01    4.0354288781E-01
4.5975788421E-01    5.1539630626E-01    5.7038437114E-01    6.2464781402E-01
6.7811189972E-01    7.3070145317E-01    7.8234090978E-01    8.3295438633E-01
8.8246577313E-01    9.3079884774E-01    9.7787741027E-01    1.0236254402E+00
1.0679672741E+00    1.1108278043E+00    1.1521326961E+00    1.1918086246E+00
1.2297835278E+00    1.2659868752E+00    1.3003499508E+00    1.3328061476E+00
1.3632912714E+00    1.3917438533E+00    1.4181054661E+00    1.4423210442E+00
1.4643392036E+00    1.4841125593E+00    1.5015980379E+00    1.5167571822E+00
1.5295564458E+00    1.5399674749E+00    1.5479673746E+00    1.5535389571E+00
1.5566709705E+00    1.5573583046E+00    1.5556021727E+00    1.5514102670E+00
1.5447968859E+00    1.5357830320E+00    1.5243964792E+00    1.5106718078E+00
1.4946504068E+00    1.4763804428E+00    1.4559167947E+00    1.4333209549E+00
1.4086608957E+00    1.3820109023E+00    1.3534513725E+00    1.3230685836E+00
1.2909544281E+00    1.2572061180E+00    1.2219258608E+00    1.1852205075E+00
1.1472011741E+00    1.1079828394E+00    1.0676839209E+00    1.0264258296E+00
9.8433250780E-01    9.4152995092E-01    8.9814571617E-01    8.5430842059E-01
8.1014723072E-01    7.6579134676E-01    7.2136948357E-01    6.7700935115E-01
6.3283713727E-01    5.8897699466E-01    5.4555053546E-01    5.0267633534E-01
4.6046944974E-01    4.1904094476E-01    3.7849744485E-01    3.3894069975E-01
3.0046717281E-01    2.6316765276E-01    2.2712689107E-01    1.9242326675E-01
1.5912848052E-01    1.2730727997E-01    9.7017217547E-02    6.8308442800E-02
4.1223530299E-02    1.5797344673E-02   -7.9430560788E-03   -2.9978477870E-02
-5.0297607392E-02   -6.8896987675E-02   -8.5780951578E-02   -1.0096151254E-01
-1.1445821208E-01   -1.2629792361E-01   -1.3651461223E-01   -1.4514905053E-01
-1.5224849003E-01   -1.5786628866E-01   -1.6206149435E-01   -1.6489838501E-01
-1.6644596550E-01   -1.6677742210E-01   -1.6596953522E-01   -1.6410205113E-01
-1.6125701324E-01   -1.5751805462E-01   -1.5296966396E-01   -1.4769638395E-01
-1.4178198668E-01   -1.3530940155E-01   -1.2836097086E-01   -1.2101854696E-01
-1.1336309090E-01   -1.0547440641E-01   -9.7430844259E-02   -8.9309020298E-02
-8.1183538283E-02   -7.3126721381E-02   -6.5208352870E-02   -5.7495427010E-02
-5.0051910945E-02   -4.2938518382E-02   -3.6212495775E-02   -2.9927421688E-02
-2.4133019908E-02   -1.8874986853E-02   -1.4194833770E-02   -1.0129744163E-02
-6.7140787045E-03   -3.9715157564E-03   -1.9165170358E-03   -6.2436273055E-04
-4.8462625412E-05    5.9715821065E-05   -2.9856428475E-06   -1.4323853449E-05
2.4404346893E-06    1.4160875828E-06   -5.3781067273E-08    0.0000000000E+00
0.0000000000E+00    0.0000000000E+00    0.0000000000E+00    0.0000000000E+00
0.0000000000E+00    0.0000000000E+00    0.0000000000E+00    0.0000000000E+00
0.0000000000E+00    0.0000000000E+00    0.0000000000E+00    0.0000000000E+00
0.0000000000E+00    0.0000000000E+00    0.0000000000E+00    0.0000000000E+00
0.0000000000E+00    0.0000000000E+00    0.0000000000E+00    0.0000000000E+00
0.0000000000E+00    0.0000000000E+00    0.0000000000E+00    0.0000000000E+00
0. 0. 0. 0.
0. 0. 0. 0.
0. 0. 0. 0.
0. 0. 0. 0.
0. 0. 0. 0.
0. 0. 0. 0.
0. 0. 0. 0.
0. 0. 0. 0.
0. 0. 0. 0.
0. 0. 0. 0.
0. 0. 0. 0.
0. 0. 0. 0.
0. 0. 0. 0.
0. 0. 0. 0.
0. 0. 0. 0.
0. 0. 0. 0.
0. 0. 0. 0.
0. 0. 0. 0.
0. 0. 0. 0.
0. 0. 0. 0.
0. 0. 0. 0.
0. 0. 0. 0.
0. 0. 0. 0.
0. 0. 0. 0.
0. 0. 0. 0.
0. 0. 0. 0.
0. 0. 0. 0.
0. 0. 0. 0.
0. 0. 0. 0.
0. 0. 0. 0.
0. 0. 0. 0.
0. 0. 0. 0.
0. 0. 0. 0.
0. 0. 0. 0.
0. 0. 0. 0.
0. 0. 0. 0.
0. 0. 0. 0.
0. 0. 0. 0.
0. 0. 0. 0.
0. 0. 0. 0.
0. 0. 0. 0.
0. 0. 0. 0.
0. 0. 0. 0.
0. 0. 0. 0.
0. 0. 0. 0.
0. 0. 0. 0.
0. 0. 0. 0.
0. 0. 0. 0.
0. 0. 0. 0.
0. 0. 0. 0.
0. 0. 0. 0.
0. 0. 0. 0.
0. 0. 0. 0.
0. 0. 0. 0.
0. 0. 0. 0.
0. 0. 0. 0.
0. 0. 0. 0.
0. 0. 0. 0.
0. 0. 0. 0.
0. 0. 0. 0.
0. 0. 0. 0.
0. 0. 0. 0.
0. 0. 0. 0.
0. 0. 0. 0.
0. 0. 0. 0.
0. 0. 0. 0.
0. 0. 0. 0.
0. 0. 0. 0.
0. 0. 0. 0.
0. 0. 0. 0.
0. 0. 0. 0.
0. 0. 0. 0.
0. 0. 0. 0.
0. 0. 0. 0.
0. 0. 0. 0.
0. 0. 0. 0.
0. 0. 0. 0.
0. 0. 0. 0.