<UPF version="2.0.1">
<PP_INFO>
NOTE!!!!
This file is trimmed with a mesh size of 600 from the original version.
Trimming performed at 2023-03-31 09:10:04.942378 by trim_upf.py version 0.1.0

This pseudopotential file has been produced using the code
ONCVPSP  (Optimized Norm-Conservinng Vanderbilt PSeudopotential)
scalar-relativistic version 3.3.0 08/16/2017 by D. R. Hamann
The code is available through a link at URL www.mat-simresearch.com.
Documentation with the package provides a full discription of the
input data below.
While it is not required under the terms of the GNU GPL, it is
suggested that you cite D. R. Hamann, Phys. Rev. B 88, 085117 (2013)
in any publication using these pseudopotentials.
<PP_INPUTFILE>
# ATOM AND REFERENCE CONFIGURATION
# atsym  z   nc   nv     iexc    psfile
Kr 36.00    6    2       4      upf
#
#   n    l    f        energy (Ha)
1    0    2.00
2    0    2.00
2    1    6.00
3    0    2.00
3    1    6.00
3    2   10.00
4    0    2.00
4    1    6.00
#
# PSEUDOPOTENTIAL AND OPTIMIZATION
# lmax
2
#
#   l,   rc,      ep,       ncon, nbas, qcut
0   1.75000  -0.84704    4    8   6.10000
1   1.50000  -0.33984    4    7   7.00000
2   1.80000   0.10000    4    7   7.60000
#
# LOCAL POTENTIAL
# lloc, lpopt,  rc(5),   dvloc0
4    5   1.50000      0.00000
#
# VANDERBILT-KLEINMAN-BYLANDER PROJECTORs
# l, nproj, debl
0    2   3.00000
1    2   3.00000
2    2   4.00000
#
# MODEL CORE CHARGE
# icmod, fcfact, rcfact
3   7.00000   1.24000
#
# LOG DERIVATIVE ANALYSIS
# epsh1, epsh2, depsh
-12.00   12.00    0.02
#
# OUTPUT GRID
# rlmax, drl
6.00    0.01
#
# TEST CONFIGURATIONS
# ncnf
0
# nvcnf
#   n    l    f
</PP_INPUTFILE>
</PP_INFO>
<!--                               -->
<!-- END OF HUMAN READABLE SECTION -->
<!--                               -->
<PP_HEADER
generated="Generated using ONCVPSP code by D. R. Hamann"
author="anonymous"
date="171031"
comment=""
element="Kr"
pseudo_type="NC"
relativistic="scalar"
is_ultrasoft="F"
is_paw="F"
is_coulomb="F"
has_so="F"
has_wfc="F"
has_gipaw="F"
core_correction="T"
functional="PBE"
z_valence="    8.00"
total_psenergy="  -3.70717746781E+01"
rho_cutoff="   1.00500000000E+01"
l_max="2"
l_local="-1"
mesh_size="   600"
number_of_wfc="2"
number_of_proj="6"/>
<PP_MESH>
<PP_R type="real"  size="600" columns="8">
0.0000    0.0100    0.0200    0.0300    0.0400    0.0500    0.0600    0.0700
0.0800    0.0900    0.1000    0.1100    0.1200    0.1300    0.1400    0.1500
0.1600    0.1700    0.1800    0.1900    0.2000    0.2100    0.2200    0.2300
0.2400    0.2500    0.2600    0.2700    0.2800    0.2900    0.3000    0.3100
0.3200    0.3300    0.3400    0.3500    0.3600    0.3700    0.3800    0.3900
0.4000    0.4100    0.4200    0.4300    0.4400    0.4500    0.4600    0.4700
0.4800    0.4900    0.5000    0.5100    0.5200    0.5300    0.5400    0.5500
0.5600    0.5700    0.5800    0.5900    0.6000    0.6100    0.6200    0.6300
0.6400    0.6500    0.6600    0.6700    0.6800    0.6900    0.7000    0.7100
0.7200    0.7300    0.7400    0.7500    0.7600    0.7700    0.7800    0.7900
0.8000    0.8100    0.8200    0.8300    0.8400    0.8500    0.8600    0.8700
0.8800    0.8900    0.9000    0.9100    0.9200    0.9300    0.9400    0.9500
0.9600    0.9700    0.9800    0.9900    1.0000    1.0100    1.0200    1.0300
1.0400    1.0500    1.0600    1.0700    1.0800    1.0900    1.1000    1.1100
1.1200    1.1300    1.1400    1.1500    1.1600    1.1700    1.1800    1.1900
1.2000    1.2100    1.2200    1.2300    1.2400    1.2500    1.2600    1.2700
1.2800    1.2900    1.3000    1.3100    1.3200    1.3300    1.3400    1.3500
1.3600    1.3700    1.3800    1.3900    1.4000    1.4100    1.4200    1.4300
1.4400    1.4500    1.4600    1.4700    1.4800    1.4900    1.5000    1.5100
1.5200    1.5300    1.5400    1.5500    1.5600    1.5700    1.5800    1.5900
1.6000    1.6100    1.6200    1.6300    1.6400    1.6500    1.6600    1.6700
1.6800    1.6900    1.7000    1.7100    1.7200    1.7300    1.7400    1.7500
1.7600    1.7700    1.7800    1.7900    1.8000    1.8100    1.8200    1.8300
1.8400    1.8500    1.8600    1.8700    1.8800    1.8900    1.9000    1.9100
1.9200    1.9300    1.9400    1.9500    1.9600    1.9700    1.9800    1.9900
2.0000    2.0100    2.0200    2.0300    2.0400    2.0500    2.0600    2.0700
2.0800    2.0900    2.1000    2.1100    2.1200    2.1300    2.1400    2.1500
2.1600    2.1700    2.1800    2.1900    2.2000    2.2100    2.2200    2.2300
2.2400    2.2500    2.2600    2.2700    2.2800    2.2900    2.3000    2.3100
2.3200    2.3300    2.3400    2.3500    2.3600    2.3700    2.3800    2.3900
2.4000    2.4100    2.4200    2.4300    2.4400    2.4500    2.4600    2.4700
2.4800    2.4900    2.5000    2.5100    2.5200    2.5300    2.5400    2.5500
2.5600    2.5700    2.5800    2.5900    2.6000    2.6100    2.6200    2.6300
2.6400    2.6500    2.6600    2.6700    2.6800    2.6900    2.7000    2.7100
2.7200    2.7300    2.7400    2.7500    2.7600    2.7700    2.7800    2.7900
2.8000    2.8100    2.8200    2.8300    2.8400    2.8500    2.8600    2.8700
2.8800    2.8900    2.9000    2.9100    2.9200    2.9300    2.9400    2.9500
2.9600    2.9700    2.9800    2.9900    3.0000    3.0100    3.0200    3.0300
3.0400    3.0500    3.0600    3.0700    3.0800    3.0900    3.1000    3.1100
3.1200    3.1300    3.1400    3.1500    3.1600    3.1700    3.1800    3.1900
3.2000    3.2100    3.2200    3.2300    3.2400    3.2500    3.2600    3.2700
3.2800    3.2900    3.3000    3.3100    3.3200    3.3300    3.3400    3.3500
3.3600    3.3700    3.3800    3.3900    3.4000    3.4100    3.4200    3.4300
3.4400    3.4500    3.4600    3.4700    3.4800    3.4900    3.5000    3.5100
3.5200    3.5300    3.5400    3.5500    3.5600    3.5700    3.5800    3.5900
3.6000    3.6100    3.6200    3.6300    3.6400    3.6500    3.6600    3.6700
3.6800    3.6900    3.7000    3.7100    3.7200    3.7300    3.7400    3.7500
3.7600    3.7700    3.7800    3.7900    3.8000    3.8100    3.8200    3.8300
3.8400    3.8500    3.8600    3.8700    3.8800    3.8900    3.9000    3.9100
3.9200    3.9300    3.9400    3.9500    3.9600    3.9700    3.9800    3.9900
4.0000    4.0100    4.0200    4.0300    4.0400    4.0500    4.0600    4.0700
4.0800    4.0900    4.1000    4.1100    4.1200    4.1300    4.1400    4.1500
4.1600    4.1700    4.1800    4.1900    4.2000    4.2100    4.2200    4.2300
4.2400    4.2500    4.2600    4.2700    4.2800    4.2900    4.3000    4.3100
4.3200    4.3300    4.3400    4.3500    4.3600    4.3700    4.3800    4.3900
4.4000    4.4100    4.4200    4.4300    4.4400    4.4500    4.4600    4.4700
4.4800    4.4900    4.5000    4.5100    4.5200    4.5300    4.5400    4.5500
4.5600    4.5700    4.5800    4.5900    4.6000    4.6100    4.6200    4.6300
4.6400    4.6500    4.6600    4.6700    4.6800    4.6900    4.7000    4.7100
4.7200    4.7300    4.7400    4.7500    4.7600    4.7700    4.7800    4.7900
4.8000    4.8100    4.8200    4.8300    4.8400    4.8500    4.8600    4.8700
4.8800    4.8900    4.9000    4.9100    4.9200    4.9300    4.9400    4.9500
4.9600    4.9700    4.9800    4.9900    5.0000    5.0100    5.0200    5.0300
5.0400    5.0500    5.0600    5.0700    5.0800    5.0900    5.1000    5.1100
5.1200    5.1300    5.1400    5.1500    5.1600    5.1700    5.1800    5.1900
5.2000    5.2100    5.2200    5.2300    5.2400    5.2500    5.2600    5.2700
5.2800    5.2900    5.3000    5.3100    5.3200    5.3300    5.3400    5.3500
5.3600    5.3700    5.3800    5.3900    5.4000    5.4100    5.4200    5.4300
5.4400    5.4500    5.4600    5.4700    5.4800    5.4900    5.5000    5.5100
5.5200    5.5300    5.5400    5.5500    5.5600    5.5700    5.5800    5.5900
5.6000    5.6100    5.6200    5.6300    5.6400    5.6500    5.6600    5.6700
5.6800    5.6900    5.7000    5.7100    5.7200    5.7300    5.7400    5.7500
5.7600    5.7700    5.7800    5.7900    5.8000    5.8100    5.8200    5.8300
5.8400    5.8500    5.8600    5.8700    5.8800    5.8900    5.9000    5.9100
5.9200    5.9300    5.9400    5.9500    5.9600    5.9700    5.9800    5.9900
</PP_R>
<PP_RAB type="real"  size="600" columns="8">
0.0100    0.0100    0.0100    0.0100    0.0100    0.0100    0.0100    0.0100
0.0100    0.0100    0.0100    0.0100    0.0100    0.0100    0.0100    0.0100
0.0100    0.0100    0.0100    0.0100    0.0100    0.0100    0.0100    0.0100
0.0100    0.0100    0.0100    0.0100    0.0100    0.0100    0.0100    0.0100
0.0100    0.0100    0.0100    0.0100    0.0100    0.0100    0.0100    0.0100
0.0100    0.0100    0.0100    0.0100    0.0100    0.0100    0.0100    0.0100
0.0100    0.0100    0.0100    0.0100    0.0100    0.0100    0.0100    0.0100
0.0100    0.0100    0.0100    0.0100    0.0100    0.0100    0.0100    0.0100
0.0100    0.0100    0.0100    0.0100    0.0100    0.0100    0.0100    0.0100
0.0100    0.0100    0.0100    0.0100    0.0100    0.0100    0.0100    0.0100
0.0100    0.0100    0.0100    0.0100    0.0100    0.0100    0.0100    0.0100
0.0100    0.0100    0.0100    0.0100    0.0100    0.0100    0.0100    0.0100
0.0100    0.0100    0.0100    0.0100    0.0100    0.0100    0.0100    0.0100
0.0100    0.0100    0.0100    0.0100    0.0100    0.0100    0.0100    0.0100
0.0100    0.0100    0.0100    0.0100    0.0100    0.0100    0.0100    0.0100
0.0100    0.0100    0.0100    0.0100    0.0100    0.0100    0.0100    0.0100
0.0100    0.0100    0.0100    0.0100    0.0100    0.0100    0.0100    0.0100
0.0100    0.0100    0.0100    0.0100    0.0100    0.0100    0.0100    0.0100
0.0100    0.0100    0.0100    0.0100    0.0100    0.0100    0.0100    0.0100
0.0100    0.0100    0.0100    0.0100    0.0100    0.0100    0.0100    0.0100
0.0100    0.0100    0.0100    0.0100    0.0100    0.0100    0.0100    0.0100
0.0100    0.0100    0.0100    0.0100    0.0100    0.0100    0.0100    0.0100
0.0100    0.0100    0.0100    0.0100    0.0100    0.0100    0.0100    0.0100
0.0100    0.0100    0.0100    0.0100    0.0100    0.0100    0.0100    0.0100
0.0100    0.0100    0.0100    0.0100    0.0100    0.0100    0.0100    0.0100
0.0100    0.0100    0.0100    0.0100    0.0100    0.0100    0.0100    0.0100
0.0100    0.0100    0.0100    0.0100    0.0100    0.0100    0.0100    0.0100
0.0100    0.0100    0.0100    0.0100    0.0100    0.0100    0.0100    0.0100
0.0100    0.0100    0.0100    0.0100    0.0100    0.0100    0.0100    0.0100
0.0100    0.0100    0.0100    0.0100    0.0100    0.0100    0.0100    0.0100
0.0100    0.0100    0.0100    0.0100    0.0100    0.0100    0.0100    0.0100
0.0100    0.0100    0.0100    0.0100    0.0100    0.0100    0.0100    0.0100
0.0100    0.0100    0.0100    0.0100    0.0100    0.0100    0.0100    0.0100
0.0100    0.0100    0.0100    0.0100    0.0100    0.0100    0.0100    0.0100
0.0100    0.0100    0.0100    0.0100    0.0100    0.0100    0.0100    0.0100
0.0100    0.0100    0.0100    0.0100    0.0100    0.0100    0.0100    0.0100
0.0100    0.0100    0.0100    0.0100    0.0100    0.0100    0.0100    0.0100
0.0100    0.0100    0.0100    0.0100    0.0100    0.0100    0.0100    0.0100
0.0100    0.0100    0.0100    0.0100    0.0100    0.0100    0.0100    0.0100
0.0100    0.0100    0.0100    0.0100    0.0100    0.0100    0.0100    0.0100
0.0100    0.0100    0.0100    0.0100    0.0100    0.0100    0.0100    0.0100
0.0100    0.0100    0.0100    0.0100    0.0100    0.0100    0.0100    0.0100
0.0100    0.0100    0.0100    0.0100    0.0100    0.0100    0.0100    0.0100
0.0100    0.0100    0.0100    0.0100    0.0100    0.0100    0.0100    0.0100
0.0100    0.0100    0.0100    0.0100    0.0100    0.0100    0.0100    0.0100
0.0100    0.0100    0.0100    0.0100    0.0100    0.0100    0.0100    0.0100
0.0100    0.0100    0.0100    0.0100    0.0100    0.0100    0.0100    0.0100
0.0100    0.0100    0.0100    0.0100    0.0100    0.0100    0.0100    0.0100
0.0100    0.0100    0.0100    0.0100    0.0100    0.0100    0.0100    0.0100
0.0100    0.0100    0.0100    0.0100    0.0100    0.0100    0.0100    0.0100
0.0100    0.0100    0.0100    0.0100    0.0100    0.0100    0.0100    0.0100
0.0100    0.0100    0.0100    0.0100    0.0100    0.0100    0.0100    0.0100
0.0100    0.0100    0.0100    0.0100    0.0100    0.0100    0.0100    0.0100
0.0100    0.0100    0.0100    0.0100    0.0100    0.0100    0.0100    0.0100
0.0100    0.0100    0.0100    0.0100    0.0100    0.0100    0.0100    0.0100
0.0100    0.0100    0.0100    0.0100    0.0100    0.0100    0.0100    0.0100
0.0100    0.0100    0.0100    0.0100    0.0100    0.0100    0.0100    0.0100
0.0100    0.0100    0.0100    0.0100    0.0100    0.0100    0.0100    0.0100
0.0100    0.0100    0.0100    0.0100    0.0100    0.0100    0.0100    0.0100
0.0100    0.0100    0.0100    0.0100    0.0100    0.0100    0.0100    0.0100
0.0100    0.0100    0.0100    0.0100    0.0100    0.0100    0.0100    0.0100
0.0100    0.0100    0.0100    0.0100    0.0100    0.0100    0.0100    0.0100
0.0100    0.0100    0.0100    0.0100    0.0100    0.0100    0.0100    0.0100
0.0100    0.0100    0.0100    0.0100    0.0100    0.0100    0.0100    0.0100
0.0100    0.0100    0.0100    0.0100    0.0100    0.0100    0.0100    0.0100
0.0100    0.0100    0.0100    0.0100    0.0100    0.0100    0.0100    0.0100
0.0100    0.0100    0.0100    0.0100    0.0100    0.0100    0.0100    0.0100
0.0100    0.0100    0.0100    0.0100    0.0100    0.0100    0.0100    0.0100
0.0100    0.0100    0.0100    0.0100    0.0100    0.0100    0.0100    0.0100
0.0100    0.0100    0.0100    0.0100    0.0100    0.0100    0.0100    0.0100
0.0100    0.0100    0.0100    0.0100    0.0100    0.0100    0.0100    0.0100
0.0100    0.0100    0.0100    0.0100    0.0100    0.0100    0.0100    0.0100
0.0100    0.0100    0.0100    0.0100    0.0100    0.0100    0.0100    0.0100
0.0100    0.0100    0.0100    0.0100    0.0100    0.0100    0.0100    0.0100
0.0100    0.0100    0.0100    0.0100    0.0100    0.0100    0.0100    0.0100
</PP_RAB>
</PP_MESH>
<PP_LOCAL type="real"  size="600" columns="4">
-2.2242734463E+01   -2.2241840254E+01   -2.2239157977E+01   -2.2234688703E+01
-2.2228434214E+01   -2.2220396998E+01   -2.2210580249E+01   -2.2198987858E+01
-2.2185624409E+01   -2.2170495171E+01   -2.2153606086E+01   -2.2134963764E+01
-2.2114575469E+01   -2.2092449106E+01   -2.2068593209E+01   -2.2043016928E+01
-2.2015730009E+01   -2.1986742784E+01   -2.1956066148E+01   -2.1923711545E+01
-2.1889690947E+01   -2.1854016835E+01   -2.1816702178E+01   -2.1777760416E+01
-2.1737205432E+01   -2.1695051537E+01   -2.1651313446E+01   -2.1606006255E+01
-2.1559145420E+01   -2.1510746734E+01   -2.1460826308E+01   -2.1409400547E+01
-2.1356486129E+01   -2.1302099986E+01   -2.1246259283E+01   -2.1188981400E+01
-2.1130283909E+01   -2.1070184563E+01   -2.1008701275E+01   -2.0945852102E+01
-2.0881655231E+01   -2.0816128968E+01   -2.0749291722E+01   -2.0681161995E+01
-2.0611758372E+01   -2.0541099514E+01   -2.0469204148E+01   -2.0396091063E+01
-2.0321779104E+01   -2.0246287170E+01   -2.0169634210E+01   -2.0091839224E+01
-2.0012921262E+01   -1.9932899429E+01   -1.9851792884E+01   -1.9769620847E+01
-1.9686402604E+01   -1.9602157513E+01   -1.9516905014E+01   -1.9430664636E+01
-1.9343456008E+01   -1.9255298869E+01   -1.9166213083E+01   -1.9076218648E+01
-1.8985335714E+01   -1.8893584595E+01   -1.8800985784E+01   -1.8707559973E+01
-1.8613328065E+01   -1.8518311193E+01   -1.8422530741E+01   -1.8326008355E+01
-1.8228765967E+01   -1.8130825811E+01   -1.8032210441E+01   -1.7932942748E+01
-1.7833045979E+01   -1.7732543756E+01   -1.7631460087E+01   -1.7529819386E+01
-1.7427646486E+01   -1.7324966649E+01   -1.7221805586E+01   -1.7118189457E+01
-1.7014144887E+01   -1.6909698966E+01   -1.6804879258E+01   -1.6699713800E+01
-1.6594231101E+01   -1.6488460136E+01   -1.6382430344E+01   -1.6276171613E+01
-1.6169714270E+01   -1.6063089062E+01   -1.5956327140E+01   -1.5849460035E+01
-1.5742519630E+01   -1.5635538135E+01   -1.5528548051E+01   -1.5421582138E+01
-1.5314673378E+01   -1.5207854934E+01   -1.5101160107E+01   -1.4994622293E+01
-1.4888274937E+01   -1.4782151485E+01   -1.4676285335E+01   -1.4570709786E+01
-1.4465457988E+01   -1.4360562889E+01   -1.4256057185E+01   -1.4151973264E+01
-1.4048343155E+01   -1.3945198476E+01   -1.3842570378E+01   -1.3740489498E+01
-1.3638985900E+01   -1.3538089030E+01   -1.3437827658E+01   -1.3338229835E+01
-1.3239322834E+01   -1.3141133110E+01   -1.3043686245E+01   -1.2947006902E+01
-1.2851118779E+01   -1.2756044562E+01   -1.2661805882E+01   -1.2568423268E+01
-1.2475916105E+01   -1.2384302596E+01   -1.2293599716E+01   -1.2203823177E+01
-1.2114987387E+01   -1.2027105416E+01   -1.1940188956E+01   -1.1854248294E+01
-1.1769292274E+01   -1.1685328264E+01   -1.1602362131E+01   -1.1520398209E+01
-1.1439439269E+01   -1.1359486494E+01   -1.1280539455E+01   -1.1202596079E+01
-1.1125652645E+01   -1.1049703709E+01   -1.0974742093E+01   -1.0900759018E+01
-1.0827743851E+01   -1.0755684734E+01   -1.0684565899E+01   -1.0614365308E+01
-1.0545055565E+01   -1.0476605280E+01   -1.0408989168E+01   -1.0342190189E+01
-1.0276194432E+01   -1.0210989217E+01   -1.0146558405E+01   -1.0082884542E+01
-1.0019953629E+01   -9.9577527245E+00   -9.8962683329E+00   -9.8354874515E+00
-9.7753977612E+00   -9.7159873725E+00   -9.6572448015E+00   -9.5991589884E+00
-9.5417192746E+00   -9.4849153969E+00   -9.4287374976E+00   -9.3731760282E+00
-9.3182217795E+00   -9.2638658732E+00   -9.2100995964E+00   -9.1569154121E+00
-9.1043076138E+00   -9.0522717553E+00   -9.0008055599E+00   -8.9499065668E+00
-8.8995691459E+00   -8.8497862172E+00   -8.8005500404E+00   -8.7518526540E+00
-8.7036873815E+00   -8.6560486535E+00   -8.6089305104E+00   -8.5623261677E+00
-8.5162289260E+00   -8.4706324864E+00   -8.4255305528E+00   -8.3809167459E+00
-8.3367847046E+00   -8.2931280844E+00   -8.2499405509E+00   -8.2072157735E+00
-8.1649474261E+00   -8.1231291877E+00   -8.0817547438E+00   -8.0408177867E+00
-8.0003120184E+00   -7.9602311522E+00   -7.9205689159E+00   -7.8813190548E+00
-7.8424753351E+00   -7.8040315482E+00   -7.7659815142E+00   -7.7283190871E+00
-7.6910381586E+00   -7.6541326633E+00   -7.6175965835E+00   -7.5814239539E+00
-7.5456088668E+00   -7.5101454767E+00   -7.4750280056E+00   -7.4402507475E+00
-7.4058080731E+00   -7.3716944341E+00   -7.3379043682E+00   -7.3044325023E+00
-7.2712735570E+00   -7.2384223499E+00   -7.2058737987E+00   -7.1736229247E+00
-7.1416648550E+00   -7.1099948247E+00   -7.0786081794E+00   -7.0475003762E+00
-7.0166669852E+00   -6.9861036903E+00   -6.9558062895E+00   -6.9257706954E+00
-6.8959929346E+00   -6.8664691472E+00   -6.8371955857E+00   -6.8081686140E+00
-6.7793847055E+00   -6.7508404415E+00   -6.7225325084E+00   -6.6944576960E+00
-6.6666128939E+00   -6.6389950894E+00   -6.6116013635E+00   -6.5844288881E+00
-6.5574749220E+00   -6.5307368077E+00   -6.5042119669E+00   -6.4778978973E+00
-6.4517921682E+00   -6.4258924164E+00   -6.4001963423E+00   -6.3747017058E+00
-6.3494063221E+00   -6.3243080580E+00   -6.2994048275E+00   -6.2746945886E+00
-6.2501753387E+00   -6.2258451118E+00   -6.2017019745E+00   -6.1777440230E+00
-6.1539693798E+00   -6.1303761907E+00   -6.1069626226E+00   -6.0837268603E+00
-6.0606671046E+00   -6.0377815704E+00   -6.0150684845E+00   -5.9925260845E+00
-5.9701526172E+00   -5.9479463375E+00   -5.9259055080E+00   -5.9040283979E+00
-5.8823132830E+00   -5.8607584451E+00   -5.8393621729E+00   -5.8181227615E+00
-5.7970385130E+00   -5.7761077374E+00   -5.7553287531E+00   -5.7346998880E+00
-5.7142194800E+00   -5.6938858787E+00   -5.6736974464E+00   -5.6536525590E+00
-5.6337496074E+00   -5.6139869991E+00   -5.5943631589E+00   -5.5748765304E+00
-5.5555255773E+00   -5.5363087841E+00   -5.5172246578E+00   -5.4982717281E+00
-5.4794485489E+00   -5.4607536987E+00   -5.4421857814E+00   -5.4237434265E+00
-5.4054252901E+00   -5.3872300545E+00   -5.3691564286E+00   -5.3512031481E+00
-5.3333689747E+00   -5.3156526967E+00   -5.2980531277E+00   -5.2805691068E+00
-5.2631994976E+00   -5.2459431874E+00   -5.2287990867E+00   -5.2117661281E+00
-5.1948432652E+00   -5.1780294718E+00   -5.1613237408E+00   -5.1447250828E+00
-5.1282325255E+00   -5.1118451118E+00   -5.0955618996E+00   -5.0793819597E+00
-5.0633043754E+00   -5.0473282413E+00   -5.0314526617E+00   -5.0156767505E+00
-4.9999996299E+00   -4.9844204291E+00   -4.9689382844E+00   -4.9535523379E+00
-4.9382617370E+00   -4.9230656340E+00   -4.9079631856E+00   -4.8929535526E+00
-4.8780358997E+00   -4.8632093951E+00   -4.8484732107E+00   -4.8338265219E+00
-4.8192685080E+00   -4.8047983519E+00   -4.7904152408E+00   -4.7761183660E+00
-4.7619069239E+00   -4.7477801157E+00   -4.7337371483E+00   -4.7197772348E+00
-4.7058995946E+00   -4.6921034544E+00   -4.6783880484E+00   -4.6647526189E+00
-4.6511964168E+00   -4.6377187025E+00   -4.6243187458E+00   -4.6109958266E+00
-4.5977492354E+00   -4.5845782736E+00   -4.5714822540E+00   -4.5584605007E+00
-4.5455123498E+00   -4.5326371492E+00   -4.5198342590E+00   -4.5071030515E+00
-4.4944429108E+00   -4.4818532333E+00   -4.4693334274E+00   -4.4568829131E+00
-4.4445011218E+00   -4.4321874964E+00   -4.4199414904E+00   -4.4077625679E+00
-4.3956502029E+00   -4.3836038793E+00   -4.3716230895E+00   -4.3597073349E+00
-4.3478561247E+00   -4.3360689761E+00   -4.3243454128E+00   -4.3126849631E+00
-4.3010871619E+00   -4.2895515499E+00   -4.2780776459E+00   -4.2666650337E+00
-4.2553132802E+00   -4.2440219459E+00   -4.2327906483E+00   -4.2216189386E+00
-4.2105062092E+00   -4.1994519606E+00   -4.1884557296E+00   -4.1775168433E+00
-4.1666352755E+00   -4.1558108790E+00   -4.1450434778E+00   -4.1343329128E+00
-4.1236789678E+00   -4.1130811459E+00   -4.1025389502E+00   -4.0920517807E+00
-4.0816192486E+00   -4.0712403143E+00   -4.0609137939E+00   -4.0506387011E+00
-4.0404141473E+00   -4.0302385010E+00   -4.0201124264E+00   -4.0100359798E+00
-4.0000092732E+00   -3.9900326148E+00   -3.9801065266E+00   -3.9702300563E+00
-3.9604028058E+00   -3.9506243094E+00   -3.9408939238E+00   -3.9312111107E+00
-3.9215757189E+00   -3.9119874009E+00   -3.9024458250E+00   -3.8929507062E+00
-3.8835017159E+00   -3.8740984875E+00   -3.8647406892E+00   -3.8554279921E+00
-3.8461600687E+00   -3.8369365970E+00   -3.8277572588E+00   -3.8186217382E+00
-3.8095297222E+00   -3.8004809005E+00   -3.7914749662E+00   -3.7825116150E+00
-3.7735905457E+00   -3.7647114595E+00   -3.7558740610E+00   -3.7470780571E+00
-3.7383231577E+00   -3.7296090752E+00   -3.7209355249E+00   -3.7123022246E+00
-3.7037088947E+00   -3.6951552583E+00   -3.6866410410E+00   -3.6781659708E+00
-3.6697297783E+00   -3.6613321967E+00   -3.6529729614E+00   -3.6446518104E+00
-3.6363684839E+00   -3.6281227246E+00   -3.6199142775E+00   -3.6117428898E+00
-3.6036083112E+00   -3.5955102935E+00   -3.5874485907E+00   -3.5794229590E+00
-3.5714331569E+00   -3.5634789449E+00   -3.5555600858E+00   -3.5476763444E+00
-3.5398274875E+00   -3.5320132842E+00   -3.5242335053E+00   -3.5164879239E+00
-3.5087763150E+00   -3.5010984555E+00   -3.4934541244E+00   -3.4858431025E+00
-3.4782651725E+00   -3.4707201191E+00   -3.4632077288E+00   -3.4557277899E+00
-3.4482800925E+00   -3.4408644287E+00   -3.4334805922E+00   -3.4261283785E+00
-3.4188075849E+00   -3.4115180104E+00   -3.4042594557E+00   -3.3970317232E+00
-3.3898346170E+00   -3.3826679428E+00   -3.3755315081E+00   -3.3684251217E+00
-3.3613485944E+00   -3.3543017383E+00   -3.3472843671E+00   -3.3402962963E+00
-3.3333373426E+00   -3.3264073244E+00   -3.3195060617E+00   -3.3126333758E+00
-3.3057890896E+00   -3.2989730273E+00   -3.2921850149E+00   -3.2854248794E+00
-3.2786924495E+00   -3.2719875552E+00   -3.2653100278E+00   -3.2586597003E+00
-3.2520364067E+00   -3.2454399825E+00   -3.2388702646E+00   -3.2323270910E+00
-3.2258103012E+00   -3.2193197360E+00   -3.2128552373E+00   -3.2064166484E+00
-3.2000038139E+00   -3.1936165796E+00   -3.1872547924E+00   -3.1809183006E+00
-3.1746069537E+00   -3.1683206021E+00   -3.1620590977E+00   -3.1558222936E+00
-3.1496100438E+00   -3.1434222036E+00   -3.1372586293E+00   -3.1311191787E+00
-3.1250037102E+00   -3.1189120837E+00   -3.1128441599E+00   -3.1067998009E+00
-3.1007788695E+00   -3.0947812299E+00   -3.0888067472E+00   -3.0828552874E+00
-3.0769267178E+00   -3.0710209066E+00   -3.0651377230E+00   -3.0592770371E+00
-3.0534387202E+00   -3.0476226444E+00   -3.0418286829E+00   -3.0360567098E+00
-3.0303066002E+00   -3.0245782300E+00   -3.0188714763E+00   -3.0131862168E+00
-3.0075223304E+00   -3.0018796968E+00   -2.9962581966E+00   -2.9906577113E+00
-2.9850781232E+00   -2.9795193156E+00   -2.9739811726E+00   -2.9684635793E+00
-2.9629664214E+00   -2.9574895856E+00   -2.9520329595E+00   -2.9465964314E+00
-2.9411798904E+00   -2.9357832266E+00   -2.9304063306E+00   -2.9250490942E+00
-2.9197114097E+00   -2.9143931702E+00   -2.9090942696E+00   -2.9038146027E+00
-2.8985540650E+00   -2.8933125527E+00   -2.8880899627E+00   -2.8828861928E+00
-2.8777011414E+00   -2.8725347076E+00   -2.8673867915E+00   -2.8622572937E+00
-2.8571461153E+00   -2.8520531586E+00   -2.8469783262E+00   -2.8419215216E+00
-2.8368826488E+00   -2.8318616126E+00   -2.8268583186E+00   -2.8218726728E+00
-2.8169045820E+00   -2.8119539537E+00   -2.8070206959E+00   -2.8021047175E+00
-2.7972059276E+00   -2.7923242365E+00   -2.7874595547E+00   -2.7826117935E+00
-2.7777808646E+00   -2.7729666808E+00   -2.7681691549E+00   -2.7633882007E+00
-2.7586237326E+00   -2.7538756652E+00   -2.7491439142E+00   -2.7444283956E+00
-2.7397290260E+00   -2.7350457225E+00   -2.7303784029E+00   -2.7257269856E+00
-2.7210913894E+00   -2.7164715336E+00   -2.7118673384E+00   -2.7072787241E+00
-2.7027056119E+00   -2.6981479232E+00   -2.6936055803E+00   -2.6890785057E+00
-2.6845666226E+00   -2.6800698546E+00   -2.6755881259E+00   -2.6711213612E+00
</PP_LOCAL>
<PP_NONLOCAL>
<PP_BETA.1
type="real"
size="600"
columns="4"
index="1"
angular_momentum="0"
cutoff_radius_index=" 184"
cutoff_radius="    1.8300000000E+00" >
-9.5137175915E-11    3.9502445140E-02    7.8963149963E-02    1.1834056499E-01
1.5759352023E-01    1.9668140937E-01    2.3556436755E-01    2.7420344044E-01
3.1256074279E-01    3.5059960463E-01    3.8828470323E-01    4.2558217949E-01
4.6245973717E-01    4.9888672399E-01    5.3483419335E-01    5.7027494619E-01
6.0518355223E-01    6.3953635038E-01    6.7331142825E-01    7.0648858099E-01
7.3904924975E-01    7.7097644057E-01    8.0225462452E-01    8.3286962025E-01
8.6280846027E-01    8.9205924261E-01    9.2061096946E-01    9.4845337484E-01
9.7557674341E-01    1.0019717224E+00    1.0276291295E+00    1.0525397585E+00
1.0766941855E+00    1.1000825786E+00    1.1226945131E+00    1.1445187945E+00
1.1655432928E+00    1.1857547898E+00    1.2051388417E+00    1.2236796595E+00
1.2413600099E+00    1.2581611367E+00    1.2740627065E+00    1.2890427798E+00
1.3030778070E+00    1.3161426532E+00    1.3282106500E+00    1.3392536761E+00
1.3492422672E+00    1.3581457536E+00    1.3659324267E+00    1.3725697328E+00
1.3780244934E+00    1.3822631506E+00    1.3852520361E+00    1.3869576622E+00
1.3873470317E+00    1.3863879655E+00    1.3840494443E+00    1.3803019623E+00
1.3751178886E+00    1.3684718351E+00    1.3603410253E+00    1.3507056624E+00
1.3395492917E+00    1.3268591547E+00    1.3126265313E+00    1.2968470654E+00
1.2795210719E+00    1.2606538205E+00    1.2402557938E+00    1.2183429161E+00
1.1949367499E+00    1.1700646579E+00    1.1437599272E+00    1.1160618544E+00
1.0870157895E+00    1.0566731360E+00    1.0250913076E+00    9.9233363980E-01
9.5846925584E-01    9.2357288704E-01    8.8772464817E-01    8.5100976824E-01
8.1351827788E-01    7.7534465498E-01    7.3658743029E-01    6.9734875555E-01
6.5773393646E-01    6.1785093382E-01    5.7780983591E-01    5.3772230588E-01
4.9770100791E-01    4.5785901639E-01    4.1830921227E-01    3.7916367126E-01
3.4053304837E-01    3.0252596345E-01    2.6524839264E-01    2.2880307040E-01
1.9328890674E-01    1.5880042448E-01    1.2542722098E-01    9.3253458608E-02
6.2357388258E-02    3.2810909745E-02    4.6791727232E-03   -2.1979778516E-02
-4.7115313407E-02   -7.0684473997E-02   -9.2652182178E-02   -1.1299139342E-01
-1.3168319570E-01   -1.4871685263E-01   -1.6408979050E-01   -1.7780752910E-01
-1.8988355686E-01   -2.0033915136E-01   -2.0920314650E-01   -2.1651164829E-01
-2.2230770153E-01   -2.2664091008E-01   -2.2956701389E-01   -2.3114742612E-01
-2.3144873436E-01   -2.3054216981E-01   -2.2850304892E-01   -2.2541019202E-01
-2.2134532372E-01   -2.1639245986E-01   -2.1063728612E-01   -2.0416653318E-01
-1.9706735359E-01   -1.8942670516E-01   -1.8133074576E-01   -1.7286424448E-01
-1.6411001336E-01   -1.5514836420E-01   -1.4605659468E-01   -1.3690850696E-01
-1.2777396310E-01   -1.1871847943E-01   -1.0980286301E-01   -1.0108289274E-01
-9.2609045871E-02   -8.4426272720E-02   -7.6573818499E-02   -6.9085098155E-02
-6.1987605258E-02   -5.5302917109E-02   -4.9046659818E-02   -4.3228527053E-02
-3.7852714226E-02   -3.2918350895E-02   -2.8420097594E-02   -2.4348615538E-02
-2.0690844881E-02   -1.7430419376E-02   -1.4548090923E-02   -1.2022166307E-02
-9.8289587858E-03   -7.9432474962E-03   -6.3387409010E-03   -4.9885391077E-03
-3.8655908278E-03   -2.9431394433E-03   -2.1951548913E-03   -1.5967453819E-03
-1.1245467285E-03   -7.5708302283E-04   -4.7505178876E-04   -2.6168834626E-04
-1.0384091885E-04    9.1764645040E-06    9.1488479129E-05    1.4904590724E-04
1.5340250810E-04    8.4689051429E-05    5.9821640785E-06   -1.7485086614E-05
-4.6954401440E-06    3.6819952725E-06    1.9192659302E-06   -3.5679497120E-07
0. 0. 0. 0.
0. 0. 0. 0.
0. 0. 0. 0.
0. 0. 0. 0.
0. 0. 0. 0.
0. 0. 0. 0.
0. 0. 0. 0.
0. 0. 0. 0.
0. 0. 0. 0.
0. 0. 0. 0.
0. 0. 0. 0.
0. 0. 0. 0.
0. 0. 0. 0.
0. 0. 0. 0.
0. 0. 0. 0.
0. 0. 0. 0.
0. 0. 0. 0.
0. 0. 0. 0.
0. 0. 0. 0.
0. 0. 0. 0.
0. 0. 0. 0.
0. 0. 0. 0.
0. 0. 0. 0.
0. 0. 0. 0.
0. 0. 0. 0.
0. 0. 0. 0.
0. 0. 0. 0.
0. 0. 0. 0.
0. 0. 0. 0.
0. 0. 0. 0.
0. 0. 0. 0.
0. 0. 0. 0.
0. 0. 0. 0.
0. 0. 0. 0.
0. 0. 0. 0.
0. 0. 0. 0.
0. 0. 0. 0.
0. 0. 0. 0.
0. 0. 0. 0.
0. 0. 0. 0.
0. 0. 0. 0.
0. 0. 0. 0.
0. 0. 0. 0.
0. 0. 0. 0.
0. 0. 0. 0.
0. 0. 0. 0.
0. 0. 0. 0.
0. 0. 0. 0.
0. 0. 0. 0.
0. 0. 0. 0.