<UPF version="2.0.1">
<PP_INFO>
NOTE!!!!
This file is trimmed with a mesh size of 600 from the original version.
Trimming performed at 2023-03-31 09:10:04.927032 by trim_upf.py version 0.1.0

This pseudopotential file has been produced using the code
ONCVPSP  (Optimized Norm-Conservinng Vanderbilt PSeudopotential)
scalar-relativistic version 3.3.0 08/16/2017 by D. R. Hamann
The code is available through a link at URL www.mat-simresearch.com.
Documentation with the package provides a full discription of the
input data below.
While it is not required under the terms of the GNU GPL, it is
suggested that you cite D. R. Hamann, Phys. Rev. B 88, 085117 (2013)
in any publication using these pseudopotentials.
<PP_INPUTFILE>
# ATOM AND REFERENCE CONFIGURATION
# atsym  z   nc   nv     iexc    psfile
La 57.00    9    4       4      upf
#
#   n    l    f        energy (Ha)
1    0    2.00
2    0    2.00
2    1    6.00
3    0    2.00
3    1    6.00
3    2   10.00
4    0    2.00
4    1    6.00
4    2   10.00
5    0    2.00
5    1    6.00
5    2    1.00
6    0    2.00
#
# PSEUDOPOTENTIAL AND OPTIMIZATION
# lmax
3
#
#   l,   rc,      ep,       ncon, nbas, qcut
0   2.10000  -1.43044    4    8   5.40000
1   1.60000  -0.82320    4    8   6.60000
2   1.85000  -0.11357    4    9   6.60000
3   1.65000  -0.15967    4    9  10.60000
#
# LOCAL POTENTIAL
# lloc, lpopt,  rc(5),   dvloc0
4    5   1.60000      2.00000
#
# VANDERBILT-KLEINMAN-BYLANDER PROJECTORs
# l, nproj, debl
0    2   1.29521
1    2   4.00000
2    2   4.00000
3    2   3.00000
#
# MODEL CORE CHARGE
# icmod, fcfact, rcfact
3   5.00000   1.35000
#
# LOG DERIVATIVE ANALYSIS
# epsh1, epsh2, depsh
-12.00   12.00    0.02
#
# OUTPUT GRID
# rlmax, drl
6.00    0.01
#
# TEST CONFIGURATIONS
# ncnf
0
# nvcnf
#   n    l    f
</PP_INPUTFILE>
</PP_INFO>
<!--                               -->
<!-- END OF HUMAN READABLE SECTION -->
<!--                               -->
<PP_HEADER
generated="Generated using ONCVPSP code by D. R. Hamann"
author="anonymous"
date="171031"
comment=""
element="La"
pseudo_type="NC"
relativistic="scalar"
is_ultrasoft="F"
is_paw="F"
is_coulomb="F"
has_so="F"
has_wfc="F"
has_gipaw="F"
core_correction="T"
functional="PBE"
z_valence="   11.00"
total_psenergy="  -6.34814257887E+01"
rho_cutoff="   1.81100000000E+01"
l_max="3"
l_local="-1"
mesh_size="   600"
number_of_wfc="4"
number_of_proj="8"/>
<PP_MESH>
<PP_R type="real"  size="600" columns="8">
0.0000    0.0100    0.0200    0.0300    0.0400    0.0500    0.0600    0.0700
0.0800    0.0900    0.1000    0.1100    0.1200    0.1300    0.1400    0.1500
0.1600    0.1700    0.1800    0.1900    0.2000    0.2100    0.2200    0.2300
0.2400    0.2500    0.2600    0.2700    0.2800    0.2900    0.3000    0.3100
0.3200    0.3300    0.3400    0.3500    0.3600    0.3700    0.3800    0.3900
0.4000    0.4100    0.4200    0.4300    0.4400    0.4500    0.4600    0.4700
0.4800    0.4900    0.5000    0.5100    0.5200    0.5300    0.5400    0.5500
0.5600    0.5700    0.5800    0.5900    0.6000    0.6100    0.6200    0.6300
0.6400    0.6500    0.6600    0.6700    0.6800    0.6900    0.7000    0.7100
0.7200    0.7300    0.7400    0.7500    0.7600    0.7700    0.7800    0.7900
0.8000    0.8100    0.8200    0.8300    0.8400    0.8500    0.8600    0.8700
0.8800    0.8900    0.9000    0.9100    0.9200    0.9300    0.9400    0.9500
0.9600    0.9700    0.9800    0.9900    1.0000    1.0100    1.0200    1.0300
1.0400    1.0500    1.0600    1.0700    1.0800    1.0900    1.1000    1.1100
1.1200    1.1300    1.1400    1.1500    1.1600    1.1700    1.1800    1.1900
1.2000    1.2100    1.2200    1.2300    1.2400    1.2500    1.2600    1.2700
1.2800    1.2900    1.3000    1.3100    1.3200    1.3300    1.3400    1.3500
1.3600    1.3700    1.3800    1.3900    1.4000    1.4100    1.4200    1.4300
1.4400    1.4500    1.4600    1.4700    1.4800    1.4900    1.5000    1.5100
1.5200    1.5300    1.5400    1.5500    1.5600    1.5700    1.5800    1.5900
1.6000    1.6100    1.6200    1.6300    1.6400    1.6500    1.6600    1.6700
1.6800    1.6900    1.7000    1.7100    1.7200    1.7300    1.7400    1.7500
1.7600    1.7700    1.7800    1.7900    1.8000    1.8100    1.8200    1.8300
1.8400    1.8500    1.8600    1.8700    1.8800    1.8900    1.9000    1.9100
1.9200    1.9300    1.9400    1.9500    1.9600    1.9700    1.9800    1.9900
2.0000    2.0100    2.0200    2.0300    2.0400    2.0500    2.0600    2.0700
2.0800    2.0900    2.1000    2.1100    2.1200    2.1300    2.1400    2.1500
2.1600    2.1700    2.1800    2.1900    2.2000    2.2100    2.2200    2.2300
2.2400    2.2500    2.2600    2.2700    2.2800    2.2900    2.3000    2.3100
2.3200    2.3300    2.3400    2.3500    2.3600    2.3700    2.3800    2.3900
2.4000    2.4100    2.4200    2.4300    2.4400    2.4500    2.4600    2.4700
2.4800    2.4900    2.5000    2.5100    2.5200    2.5300    2.5400    2.5500
2.5600    2.5700    2.5800    2.5900    2.6000    2.6100    2.6200    2.6300
2.6400    2.6500    2.6600    2.6700    2.6800    2.6900    2.7000    2.7100
2.7200    2.7300    2.7400    2.7500    2.7600    2.7700    2.7800    2.7900
2.8000    2.8100    2.8200    2.8300    2.8400    2.8500    2.8600    2.8700
2.8800    2.8900    2.9000    2.9100    2.9200    2.9300    2.9400    2.9500
2.9600    2.9700    2.9800    2.9900    3.0000    3.0100    3.0200    3.0300
3.0400    3.0500    3.0600    3.0700    3.0800    3.0900    3.1000    3.1100
3.1200    3.1300    3.1400    3.1500    3.1600    3.1700    3.1800    3.1900
3.2000    3.2100    3.2200    3.2300    3.2400    3.2500    3.2600    3.2700
3.2800    3.2900    3.3000    3.3100    3.3200    3.3300    3.3400    3.3500
3.3600    3.3700    3.3800    3.3900    3.4000    3.4100    3.4200    3.4300
3.4400    3.4500    3.4600    3.4700    3.4800    3.4900    3.5000    3.5100
3.5200    3.5300    3.5400    3.5500    3.5600    3.5700    3.5800    3.5900
3.6000    3.6100    3.6200    3.6300    3.6400    3.6500    3.6600    3.6700
3.6800    3.6900    3.7000    3.7100    3.7200    3.7300    3.7400    3.7500
3.7600    3.7700    3.7800    3.7900    3.8000    3.8100    3.8200    3.8300
3.8400    3.8500    3.8600    3.8700    3.8800    3.8900    3.9000    3.9100
3.9200    3.9300    3.9400    3.9500    3.9600    3.9700    3.9800    3.9900
4.0000    4.0100    4.0200    4.0300    4.0400    4.0500    4.0600    4.0700
4.0800    4.0900    4.1000    4.1100    4.1200    4.1300    4.1400    4.1500
4.1600    4.1700    4.1800    4.1900    4.2000    4.2100    4.2200    4.2300
4.2400    4.2500    4.2600    4.2700    4.2800    4.2900    4.3000    4.3100
4.3200    4.3300    4.3400    4.3500    4.3600    4.3700    4.3800    4.3900
4.4000    4.4100    4.4200    4.4300    4.4400    4.4500    4.4600    4.4700
4.4800    4.4900    4.5000    4.5100    4.5200    4.5300    4.5400    4.5500
4.5600    4.5700    4.5800    4.5900    4.6000    4.6100    4.6200    4.6300
4.6400    4.6500    4.6600    4.6700    4.6800    4.6900    4.7000    4.7100
4.7200    4.7300    4.7400    4.7500    4.7600    4.7700    4.7800    4.7900
4.8000    4.8100    4.8200    4.8300    4.8400    4.8500    4.8600    4.8700
4.8800    4.8900    4.9000    4.9100    4.9200    4.9300    4.9400    4.9500
4.9600    4.9700    4.9800    4.9900    5.0000    5.0100    5.0200    5.0300
5.0400    5.0500    5.0600    5.0700    5.0800    5.0900    5.1000    5.1100
5.1200    5.1300    5.1400    5.1500    5.1600    5.1700    5.1800    5.1900
5.2000    5.2100    5.2200    5.2300    5.2400    5.2500    5.2600    5.2700
5.2800    5.2900    5.3000    5.3100    5.3200    5.3300    5.3400    5.3500
5.3600    5.3700    5.3800    5.3900    5.4000    5.4100    5.4200    5.4300
5.4400    5.4500    5.4600    5.4700    5.4800    5.4900    5.5000    5.5100
5.5200    5.5300    5.5400    5.5500    5.5600    5.5700    5.5800    5.5900
5.6000    5.6100    5.6200    5.6300    5.6400    5.6500    5.6600    5.6700
5.6800    5.6900    5.7000    5.7100    5.7200    5.7300    5.7400    5.7500
5.7600    5.7700    5.7800    5.7900    5.8000    5.8100    5.8200    5.8300
5.8400    5.8500    5.8600    5.8700    5.8800    5.8900    5.9000    5.9100
5.9200    5.9300    5.9400    5.9500    5.9600    5.9700    5.9800    5.9900
</PP_R>
<PP_RAB type="real"  size="600" columns="8">
0.0100    0.0100    0.0100    0.0100    0.0100    0.0100    0.0100    0.0100
0.0100    0.0100    0.0100    0.0100    0.0100    0.0100    0.0100    0.0100
0.0100    0.0100    0.0100    0.0100    0.0100    0.0100    0.0100    0.0100
0.0100    0.0100    0.0100    0.0100    0.0100    0.0100    0.0100    0.0100
0.0100    0.0100    0.0100    0.0100    0.0100    0.0100    0.0100    0.0100
0.0100    0.0100    0.0100    0.0100    0.0100    0.0100    0.0100    0.0100
0.0100    0.0100    0.0100    0.0100    0.0100    0.0100    0.0100    0.0100
0.0100    0.0100    0.0100    0.0100    0.0100    0.0100    0.0100    0.0100
0.0100    0.0100    0.0100    0.0100    0.0100    0.0100    0.0100    0.0100
0.0100    0.0100    0.0100    0.0100    0.0100    0.0100    0.0100    0.0100
0.0100    0.0100    0.0100    0.0100    0.0100    0.0100    0.0100    0.0100
0.0100    0.0100    0.0100    0.0100    0.0100    0.0100    0.0100    0.0100
0.0100    0.0100    0.0100    0.0100    0.0100    0.0100    0.0100    0.0100
0.0100    0.0100    0.0100    0.0100    0.0100    0.0100    0.0100    0.0100
0.0100    0.0100    0.0100    0.0100    0.0100    0.0100    0.0100    0.0100
0.0100    0.0100    0.0100    0.0100    0.0100    0.0100    0.0100    0.0100
0.0100    0.0100    0.0100    0.0100    0.0100    0.0100    0.0100    0.0100
0.0100    0.0100    0.0100    0.0100    0.0100    0.0100    0.0100    0.0100
0.0100    0.0100    0.0100    0.0100    0.0100    0.0100    0.0100    0.0100
0.0100    0.0100    0.0100    0.0100    0.0100    0.0100    0.0100    0.0100
0.0100    0.0100    0.0100    0.0100    0.0100    0.0100    0.0100    0.0100
0.0100    0.0100    0.0100    0.0100    0.0100    0.0100    0.0100    0.0100
0.0100    0.0100    0.0100    0.0100    0.0100    0.0100    0.0100    0.0100
0.0100    0.0100    0.0100    0.0100    0.0100    0.0100    0.0100    0.0100
0.0100    0.0100    0.0100    0.0100    0.0100    0.0100    0.0100    0.0100
0.0100    0.0100    0.0100    0.0100    0.0100    0.0100    0.0100    0.0100
0.0100    0.0100    0.0100    0.0100    0.0100    0.0100    0.0100    0.0100
0.0100    0.0100    0.0100    0.0100    0.0100    0.0100    0.0100    0.0100
0.0100    0.0100    0.0100    0.0100    0.0100    0.0100    0.0100    0.0100
0.0100    0.0100    0.0100    0.0100    0.0100    0.0100    0.0100    0.0100
0.0100    0.0100    0.0100    0.0100    0.0100    0.0100    0.0100    0.0100
0.0100    0.0100    0.0100    0.0100    0.0100    0.0100    0.0100    0.0100
0.0100    0.0100    0.0100    0.0100    0.0100    0.0100    0.0100    0.0100
0.0100    0.0100    0.0100    0.0100    0.0100    0.0100    0.0100    0.0100
0.0100    0.0100    0.0100    0.0100    0.0100    0.0100    0.0100    0.0100
0.0100    0.0100    0.0100    0.0100    0.0100    0.0100    0.0100    0.0100
0.0100    0.0100    0.0100    0.0100    0.0100    0.0100    0.0100    0.0100
0.0100    0.0100    0.0100    0.0100    0.0100    0.0100    0.0100    0.0100
0.0100    0.0100    0.0100    0.0100    0.0100    0.0100    0.0100    0.0100
0.0100    0.0100    0.0100    0.0100    0.0100    0.0100    0.0100    0.0100
0.0100    0.0100    0.0100    0.0100    0.0100    0.0100    0.0100    0.0100
0.0100    0.0100    0.0100    0.0100    0.0100    0.0100    0.0100    0.0100
0.0100    0.0100    0.0100    0.0100    0.0100    0.0100    0.0100    0.0100
0.0100    0.0100    0.0100    0.0100    0.0100    0.0100    0.0100    0.0100
0.0100    0.0100    0.0100    0.0100    0.0100    0.0100    0.0100    0.0100
0.0100    0.0100    0.0100    0.0100    0.0100    0.0100    0.0100    0.0100
0.0100    0.0100    0.0100    0.0100    0.0100    0.0100    0.0100    0.0100
0.0100    0.0100    0.0100    0.0100    0.0100    0.0100    0.0100    0.0100
0.0100    0.0100    0.0100    0.0100    0.0100    0.0100    0.0100    0.0100
0.0100    0.0100    0.0100    0.0100    0.0100    0.0100    0.0100    0.0100
0.0100    0.0100    0.0100    0.0100    0.0100    0.0100    0.0100    0.0100
0.0100    0.0100    0.0100    0.0100    0.0100    0.0100    0.0100    0.0100
0.0100    0.0100    0.0100    0.0100    0.0100    0.0100    0.0100    0.0100
0.0100    0.0100    0.0100    0.0100    0.0100    0.0100    0.0100    0.0100
0.0100    0.0100    0.0100    0.0100    0.0100    0.0100    0.0100    0.0100
0.0100    0.0100    0.0100    0.0100    0.0100    0.0100    0.0100    0.0100
0.0100    0.0100    0.0100    0.0100    0.0100    0.0100    0.0100    0.0100
0.0100    0.0100    0.0100    0.0100    0.0100    0.0100    0.0100    0.0100
0.0100    0.0100    0.0100    0.0100    0.0100    0.0100    0.0100    0.0100
0.0100    0.0100    0.0100    0.0100    0.0100    0.0100    0.0100    0.0100
0.0100    0.0100    0.0100    0.0100    0.0100    0.0100    0.0100    0.0100
0.0100    0.0100    0.0100    0.0100    0.0100    0.0100    0.0100    0.0100
0.0100    0.0100    0.0100    0.0100    0.0100    0.0100    0.0100    0.0100
0.0100    0.0100    0.0100    0.0100    0.0100    0.0100    0.0100    0.0100
0.0100    0.0100    0.0100    0.0100    0.0100    0.0100    0.0100    0.0100
0.0100    0.0100    0.0100    0.0100    0.0100    0.0100    0.0100    0.0100
0.0100    0.0100    0.0100    0.0100    0.0100    0.0100    0.0100    0.0100
0.0100    0.0100    0.0100    0.0100    0.0100    0.0100    0.0100    0.0100
0.0100    0.0100    0.0100    0.0100    0.0100    0.0100    0.0100    0.0100
0.0100    0.0100    0.0100    0.0100    0.0100    0.0100    0.0100    0.0100
0.0100    0.0100    0.0100    0.0100    0.0100    0.0100    0.0100    0.0100
0.0100    0.0100    0.0100    0.0100    0.0100    0.0100    0.0100    0.0100
0.0100    0.0100    0.0100    0.0100    0.0100    0.0100    0.0100    0.0100
0.0100    0.0100    0.0100    0.0100    0.0100    0.0100    0.0100    0.0100
0.0100    0.0100    0.0100    0.0100    0.0100    0.0100    0.0100    0.0100
</PP_RAB>
</PP_MESH>
<PP_LOCAL type="real"  size="600" columns="4">
-2.5704255428E+01   -2.5703137893E+01   -2.5699785910E+01   -2.5694201366E+01
-2.5686387406E+01   -2.5676348430E+01   -2.5664090093E+01   -2.5649619300E+01
-2.5632944208E+01   -2.5614074219E+01   -2.5593019977E+01   -2.5569793367E+01
-2.5544407503E+01   -2.5516876728E+01   -2.5487216604E+01   -2.5455443908E+01
-2.5421576618E+01   -2.5385633911E+01   -2.5347636144E+01   -2.5307604853E+01
-2.5265562731E+01   -2.5221533623E+01   -2.5175542508E+01   -2.5127615482E+01
-2.5077779747E+01   -2.5026063592E+01   -2.4972496372E+01   -2.4917108492E+01
-2.4859931388E+01   -2.4800997503E+01   -2.4740340265E+01   -2.4677994067E+01
-2.4613994240E+01   -2.4548377032E+01   -2.4481179574E+01   -2.4412439863E+01
-2.4342196727E+01   -2.4270489797E+01   -2.4197359479E+01   -2.4122846922E+01
-2.4046993982E+01   -2.3969843195E+01   -2.3891437737E+01   -2.3811821389E+01
-2.3731038503E+01   -2.3649133962E+01   -2.3566153137E+01   -2.3482141856E+01
-2.3397146352E+01   -2.3311213229E+01   -2.3224389413E+01   -2.3136722110E+01
-2.3048258762E+01   -2.2959046996E+01   -2.2869134583E+01   -2.2778569385E+01
-2.2687399311E+01   -2.2595672264E+01   -2.2503436093E+01   -2.2410738543E+01
-2.2317627205E+01   -2.2224149459E+01   -2.2130352427E+01   -2.2036282920E+01
-2.1941987378E+01   -2.1847511822E+01   -2.1752901790E+01   -2.1658202288E+01
-2.1563457722E+01   -2.1468711842E+01   -2.1374007678E+01   -2.1279387474E+01
-2.1184892619E+01   -2.1090563579E+01   -2.0996439819E+01   -2.0902559732E+01
-2.0808960558E+01   -2.0715678296E+01   -2.0622747626E+01   -2.0530201816E+01
-2.0438072632E+01   -2.0346390242E+01   -2.0255183123E+01   -2.0164477959E+01
-2.0074299548E+01   -1.9984670695E+01   -1.9895612119E+01   -1.9807142351E+01
-1.9719277637E+01   -1.9632031845E+01   -1.9545416371E+01   -1.9459440052E+01
-1.9374109085E+01   -1.9289426951E+01   -1.9205394341E+01   -1.9122009097E+01
-1.9039266156E+01   -1.8957157505E+01   -1.8875672147E+01   -1.8794796073E+01
-1.8714512251E+01   -1.8634800626E+01   -1.8555638125E+01   -1.8476998689E+01
-1.8398853306E+01   -1.8321170067E+01   -1.8243914231E+01   -1.8167048314E+01
-1.8090532189E+01   -1.8014323201E+01   -1.7938376308E+01   -1.7862644230E+01
-1.7787077631E+01   -1.7711625306E+01   -1.7636234398E+01   -1.7560850633E+01
-1.7485418577E+01   -1.7409881910E+01   -1.7334183732E+01   -1.7258266876E+01
-1.7182074260E+01   -1.7105549244E+01   -1.7028636018E+01   -1.6951280011E+01
-1.6873428308E+01   -1.6795030101E+01   -1.6716037143E+01   -1.6636404223E+01
-1.6556089650E+01   -1.6475055752E+01   -1.6393269370E+01   -1.6310702369E+01
-1.6227332133E+01   -1.6143142065E+01   -1.6058122066E+01   -1.5972269008E+01
-1.5885587169E+01   -1.5798088647E+01   -1.5709793733E+01   -1.5620731234E+01
-1.5530938739E+01   -1.5440462820E+01   -1.5349359148E+01   -1.5257692531E+01
-1.5165536827E+01   -1.5072974761E+01   -1.4980097590E+01   -1.4887004625E+01
-1.4793802583E+01   -1.4700604750E+01   -1.4607529930E+01   -1.4514701169E+01
-1.4422244212E+01   -1.4330285694E+01   -1.4238951048E+01   -1.4148361781E+01
-1.4058632905E+01   -1.3969870059E+01   -1.3882164397E+01   -1.3795592583E+01
-1.3710202583E+01   -1.3625999410E+01   -1.3542956082E+01   -1.3461016182E+01
-1.3380124710E+01   -1.3300253928E+01   -1.3221384962E+01   -1.3143501818E+01
-1.3066586790E+01   -1.2990612599E+01   -1.2915553630E+01   -1.2841391448E+01
-1.2768107980E+01   -1.2695683614E+01   -1.2624099563E+01   -1.2553338169E+01
-1.2483382309E+01   -1.2414215352E+01   -1.2345821227E+01   -1.2278184356E+01
-1.2211289677E+01   -1.2145122608E+01   -1.2079668971E+01   -1.2014915176E+01
-1.1950847805E+01   -1.1887453128E+01   -1.1824717048E+01   -1.1762624940E+01
-1.1701161694E+01   -1.1640313035E+01   -1.1580066929E+01   -1.1520412326E+01
-1.1461338947E+01   -1.1402837052E+01   -1.1344896534E+01   -1.1287507028E+01
-1.1230658647E+01   -1.1174342431E+01   -1.1118549769E+01   -1.1063272106E+01
-1.1008501204E+01   -1.0954229156E+01   -1.0900448372E+01   -1.0847151547E+01
-1.0794331669E+01   -1.0741981973E+01   -1.0690095943E+01   -1.0638667331E+01
-1.0587690108E+01   -1.0537158440E+01   -1.0487067037E+01   -1.0437411293E+01
-1.0388187192E+01   -1.0339391592E+01   -1.0291022428E+01   -1.0243077618E+01
-1.0195552640E+01   -1.0148442164E+01   -1.0101740881E+01   -1.0055444881E+01
-1.0009550256E+01   -9.9640529433E+00   -9.9189488156E+00   -9.8742338424E+00
-9.8299041586E+00   -9.7859559489E+00   -9.7423854528E+00   -9.6991889418E+00
-9.6563627356E+00   -9.6139031992E+00   -9.5718067360E+00   -9.5300697833E+00
-9.4886888068E+00   -9.4476602992E+00   -9.4069807765E+00   -9.3666467757E+00
-9.3266548520E+00   -9.2870015768E+00   -9.2476835362E+00   -9.2086973288E+00
-9.1700395654E+00   -9.1317068670E+00   -9.0936958651E+00   -9.0560032005E+00
-9.0186255236E+00   -8.9815594945E+00   -8.9448017826E+00   -8.9083490679E+00
-8.8721980412E+00   -8.8363454049E+00   -8.8007878742E+00   -8.7655221778E+00
-8.7305450594E+00   -8.6958532789E+00   -8.6614436136E+00   -8.6273128597E+00
-8.5934578335E+00   -8.5598753727E+00   -8.5265623382E+00   -8.4935156149E+00
-8.4607321132E+00   -8.4282087698E+00   -8.3959425495E+00   -8.3639304453E+00
-8.3321694797E+00   -8.3006567054E+00   -8.2693892057E+00   -8.2383640951E+00
-8.2075785195E+00   -8.1770296562E+00   -8.1467147141E+00   -8.1166309336E+00
-8.0867755861E+00   -8.0571459736E+00   -8.0277394287E+00   -7.9985533131E+00
-7.9695850179E+00   -7.9408319622E+00   -7.9122915924E+00   -7.8839613818E+00
-7.8558388291E+00   -7.8279214585E+00   -7.8002068181E+00   -7.7726924797E+00
-7.7453760381E+00   -7.7182551106E+00   -7.6913273366E+00   -7.6645903775E+00
-7.6380419163E+00   -7.6116796582E+00   -7.5855013304E+00   -7.5595046827E+00
-7.5336874882E+00   -7.5080475441E+00   -7.4825826726E+00   -7.4572907217E+00
-7.4321695675E+00   -7.4072171144E+00   -7.3824312975E+00   -7.3578100838E+00
-7.3333514741E+00   -7.3090535047E+00   -7.2849142490E+00   -7.2609318192E+00
-7.2371043684E+00   -7.2134300916E+00   -7.1899072274E+00   -7.1665340595E+00
-7.1433089173E+00   -7.1202301776E+00   -7.0972962647E+00   -7.0745056508E+00
-7.0518568568E+00   -7.0293484521E+00   -7.0069790536E+00   -6.9847473257E+00
-6.9626519798E+00   -6.9406917725E+00   -6.9188655040E+00   -6.8971720174E+00
-6.8756101961E+00   -6.8541789621E+00   -6.8328772737E+00   -6.8117041230E+00
-6.7906585334E+00   -6.7697395575E+00   -6.7489462738E+00   -6.7282777842E+00
-6.7077332117E+00   -6.6873116972E+00   -6.6670123974E+00   -6.6468344817E+00
-6.6267771301E+00   -6.6068395310E+00   -6.5870208791E+00   -6.5673203724E+00
-6.5477372113E+00   -6.5282705969E+00   -6.5089197292E+00   -6.4896838054E+00
-6.4705620192E+00   -6.4515535598E+00   -6.4326576112E+00   -6.4138733510E+00
-6.3951999505E+00   -6.3766365744E+00   -6.3581823804E+00   -6.3398365195E+00
-6.3215981356E+00   -6.3034663665E+00   -6.2854403436E+00   -6.2675191930E+00
-6.2497020355E+00   -6.2319879874E+00   -6.2143761614E+00   -6.1968656670E+00
-6.1794556118E+00   -6.1621451015E+00   -6.1449332416E+00   -6.1278191376E+00
-6.1108018964E+00   -6.0938806266E+00   -6.0770544397E+00   -6.0603224509E+00
-6.0436837799E+00   -6.0271375515E+00   -6.0106828967E+00   -5.9943189529E+00
-5.9780448652E+00   -5.9618597866E+00   -5.9457628790E+00   -5.9297533133E+00
-5.9138302702E+00   -5.8979929407E+00   -5.8822405266E+00   -5.8665722406E+00
-5.8509873069E+00   -5.8354849615E+00   -5.8200644524E+00   -5.8047250398E+00
-5.7894659963E+00   -5.7742866069E+00   -5.7591861697E+00   -5.7441639950E+00
-5.7292194062E+00   -5.7143517391E+00   -5.6995603426E+00   -5.6848445777E+00
-5.6702038184E+00   -5.6556374508E+00   -5.6411448730E+00   -5.6267254955E+00
-5.6123787403E+00   -5.5981040411E+00   -5.5839008428E+00   -5.5697686014E+00
-5.5557067836E+00   -5.5417148663E+00   -5.5277923368E+00   -5.5139386920E+00
-5.5001534380E+00   -5.4864360904E+00   -5.4727861729E+00   -5.4592032180E+00
-5.4456867658E+00   -5.4322363641E+00   -5.4188515676E+00   -5.4055319382E+00
-5.3922770438E+00   -5.3790864586E+00   -5.3659597622E+00   -5.3528965396E+00
-5.3398963808E+00   -5.3269588800E+00   -5.3140836361E+00   -5.3012702514E+00
-5.2885183321E+00   -5.2758274874E+00   -5.2631973296E+00   -5.2506274735E+00
-5.2381175364E+00   -5.2256671375E+00   -5.2132758982E+00   -5.2009434411E+00
-5.1886693909E+00   -5.1764533728E+00   -5.1642950136E+00   -5.1521939409E+00
-5.1401497829E+00   -5.1281621689E+00   -5.1162307284E+00   -5.1043550915E+00
-5.0925348887E+00   -5.0807697511E+00   -5.0690593100E+00   -5.0574031972E+00
-5.0458010445E+00   -5.0342524846E+00   -5.0227571503E+00   -5.0113146751E+00
-4.9999246929E+00   -4.9885868384E+00   -4.9773007469E+00   -4.9660660546E+00
-4.9548823988E+00   -4.9437494177E+00   -4.9326667508E+00   -4.9216340391E+00
-4.9106509249E+00   -4.8997170524E+00   -4.8888320674E+00   -4.8779956179E+00
-4.8672073540E+00   -4.8564669281E+00   -4.8457739950E+00   -4.8351282122E+00
-4.8245292399E+00   -4.8139767415E+00   -4.8034703833E+00   -4.7930098347E+00
-4.7825947683E+00   -4.7722248605E+00   -4.7618997918E+00   -4.7516192462E+00
-4.7413829112E+00   -4.7311904781E+00   -4.7210416552E+00   -4.7109361270E+00
-4.7008735915E+00   -4.6908537536E+00   -4.6808763246E+00   -4.6709410013E+00
-4.6610474866E+00   -4.6511955749E+00   -4.6413850164E+00   -4.6316155599E+00
-4.6218869496E+00   -4.6121989818E+00   -4.6025513404E+00   -4.5929436864E+00
-4.5833757059E+00   -4.5738470827E+00   -4.5643575026E+00   -4.5549067726E+00
-4.5454944645E+00   -4.5361202677E+00   -4.5267839115E+00   -4.5174851671E+00
-4.5082237625E+00   -4.4989991862E+00   -4.4898120009E+00   -4.4806623060E+00
-4.4715502042E+00   -4.4624757736E+00   -4.4534393067E+00   -4.4444410479E+00
-4.4354800453E+00   -4.4265558883E+00   -4.4176681194E+00   -4.4088162595E+00
-4.3999995803E+00   -4.3912175225E+00   -4.3824702548E+00   -4.3737575700E+00
-4.3650792943E+00   -4.3564352787E+00   -4.3478254906E+00   -4.3392498431E+00
-4.3307079789E+00   -4.3221997016E+00   -4.3137248119E+00   -4.3052831081E+00
-4.2968743731E+00   -4.2884983905E+00   -4.2801549995E+00   -4.2718440102E+00
-4.2635652341E+00   -4.2553184844E+00   -4.2471035755E+00   -4.2389203237E+00
-4.2307685460E+00   -4.2226480613E+00   -4.2145586896E+00   -4.2065002525E+00
-4.1984725729E+00   -4.1904754753E+00   -4.1825087850E+00   -4.1745723290E+00
-4.1666659355E+00   -4.1587894340E+00   -4.1509426554E+00   -4.1431254316E+00
-4.1353375960E+00   -4.1275789832E+00   -4.1198494290E+00   -4.1121487706E+00
-4.1044768461E+00   -4.0968334950E+00   -4.0892185580E+00   -4.0816318770E+00
-4.0740732950E+00   -4.0665426561E+00   -4.0590398057E+00   -4.0515645902E+00
-4.0441168573E+00   -4.0366964557E+00   -4.0293032352E+00   -4.0219370467E+00
-4.0145977423E+00   -4.0072851750E+00   -3.9999991990E+00   -3.9927396696E+00
-3.9855064429E+00   -3.9782993763E+00   -3.9711183282E+00   -3.9639631578E+00
-3.9568337256E+00   -3.9497298929E+00   -3.9426515221E+00   -3.9355984765E+00
-3.9285706206E+00   -3.9215678194E+00   -3.9145899395E+00   -3.9076368478E+00
-3.9007084126E+00   -3.8938045031E+00   -3.8869249890E+00   -3.8800697415E+00
-3.8732386323E+00   -3.8664315341E+00   -3.8596483206E+00   -3.8528888663E+00
-3.8461530465E+00   -3.8394407376E+00   -3.8327518166E+00   -3.8260861616E+00
-3.8194436513E+00   -3.8128241653E+00   -3.8062275843E+00   -3.7996537895E+00
-3.7931026631E+00   -3.7865740880E+00   -3.7800679479E+00   -3.7735841275E+00
-3.7671225120E+00   -3.7606829876E+00   -3.7542654412E+00   -3.7478697604E+00
-3.7414958338E+00   -3.7351435505E+00   -3.7288128004E+00   -3.7225034742E+00
-3.7162154634E+00   -3.7099486602E+00   -3.7037029574E+00   -3.6974782486E+00
-3.6912744282E+00   -3.6850913912E+00   -3.6789290333E+00   -3.6727872509E+00
</PP_LOCAL>
<PP_NONLOCAL>
<PP_BETA.1
type="real"
size="600"
columns="4"
index="1"
angular_momentum="0"
cutoff_radius_index=" 216"
cutoff_radius="    2.1500000000E+00" >
-4.4836356849E-12    3.1547770251E-02    6.3078511408E-02    9.4575198745E-02
1.2602081619E-01    1.5739836045E-01    1.8869084493E-01    2.1988130331E-01
2.5095279278E-01    2.8188839685E-01    3.1267122762E-01    3.4328442761E-01
3.7371117089E-01    4.0393466374E-01    4.3393814457E-01    4.6370488328E-01
4.9321817998E-01    5.2246136303E-01    5.5141778658E-01    5.8007082746E-01
6.0840388169E-01    6.3640036041E-01    6.6404368555E-01    6.9131728519E-01
7.1820458874E-01    7.4468902208E-01    7.7075400278E-01    7.9638293546E-01
8.2155920755E-01    8.4626618553E-01    8.7048721184E-01    8.9420560258E-01
9.1740464623E-01    9.4006760357E-01    9.6217770888E-01    9.8371817273E-01
1.0046721865E+00    1.0250229286E+00    1.0447535730E+00    1.0638472998E+00
1.0822873081E+00    1.1000568317E+00    1.1171391568E+00    1.1335176433E+00
1.1491757482E+00    1.1640970521E+00    1.1782652889E+00    1.1916643786E+00
1.2042784625E+00    1.2160919419E+00    1.2270895199E+00    1.2372562456E+00
1.2465775612E+00    1.2550393524E+00    1.2626280005E+00    1.2693304372E+00
1.2751342011E+00    1.2800274972E+00    1.2839992563E+00    1.2870391971E+00
1.2891378884E+00    1.2902868120E+00    1.2904784265E+00    1.2897062295E+00
1.2879648206E+00    1.2852499624E+00    1.2815586402E+00    1.2768891198E+00
1.2712410030E+00    1.2646152795E+00    1.2570143761E+00    1.2484422018E+00
1.2389041884E+00    1.2284073264E+00    1.2169601964E+00    1.2045729935E+00
1.1912575475E+00    1.1770273355E+00    1.1618974887E+00    1.1458847926E+00
1.1290076794E+00    1.1112862143E+00    1.0927420741E+00    1.0733985188E+00
1.0532803560E+00    1.0324138984E+00    1.0108269142E+00    9.8854857109E-01
9.6560937398E-01    9.4204109650E-01    9.1787670719E-01    8.9315029061E-01
8.6789696396E-01    8.4215278982E-01    8.1595468574E-01    7.8934033125E-01
7.6234807308E-01    7.3501682951E-01    7.0738599431E-01    6.7949534146E-01
6.5138493112E-01    6.2309501786E-01    5.9466596187E-01    5.6613814381E-01
5.3755188419E-01    5.0894736770E-01    4.8036457328E-01    4.5184321027E-01
4.2342266111E-01    3.9514193096E-01    3.6703960424E-01    3.3915380829E-01
3.1152218412E-01    2.8418186372E-01    2.5716945396E-01    2.3052102617E-01
2.0427211086E-01    1.7845769672E-01    1.5311223271E-01    1.2826963221E-01
1.0396327759E-01    8.0226024024E-02    5.7090200514E-02    3.4587606570E-02
1.2749502535E-02   -8.3934084161E-03   -2.8811008673E-02   -4.8473807031E-02
-6.7352994115E-02   -8.5420514358E-02   -1.0264915649E-01   -1.1901266445E-01
-1.3448587010E-01   -1.4904484930E-01   -1.6266710246E-01   -1.7533175973E-01
-1.8701981166E-01   -1.9771436463E-01   -2.0740091958E-01   -2.1606767354E-01
-2.2370583975E-01   -2.3030998409E-01   -2.3587837308E-01   -2.4041332611E-01
-2.4392156804E-01   -2.4641456951E-01   -2.4790886841E-01   -2.4842635902E-01
-2.4799453347E-01   -2.4664666514E-01   -2.4442190627E-01   -2.4136529199E-01
-2.3752761420E-01   -2.3296515039E-01   -2.2773921155E-01   -2.2191547811E-01
-2.1556307828E-01   -2.0875345808E-01   -2.0155859293E-01   -1.9404988299E-01
-1.8629478253E-01   -1.7835324497E-01   -1.7027867641E-01   -1.6211788227E-01
-1.5391401305E-01   -1.4570931997E-01   -1.3754370791E-01   -1.2945447399E-01
-1.2147655624E-01   -1.1364228353E-01   -1.0598136672E-01   -9.8520829711E-02
-9.1284970460E-02   -8.4295337651E-02   -7.7570724071E-02   -7.1127175423E-02
-6.4978015847E-02   -5.9133888295E-02   -5.3602811222E-02   -4.8390249139E-02
-4.3499198666E-02   -3.8930287275E-02   -3.4681886034E-02   -3.0750233838E-02
-2.7129573603E-02   -2.3812298548E-02   -2.0789108072E-02   -1.8049172050E-02
-1.5580302187E-02   -1.3369129786E-02   -1.1401288027E-02   -9.6615982689E-03
-8.1342586990E-03   -6.8030339301E-03   -5.6514442625E-03   -4.6629539974E-03
-3.8211576754E-03   -3.1099623895E-03   -2.5137630920E-03   -2.0176119037E-03
-1.6073818276E-03   -1.2699225266E-03   -9.9320493266E-04   -7.6645482553E-04
-5.8027615295E-04   -4.2687720204E-04   -2.9971019744E-04   -1.9400273498E-04