<UPF version="2.0.1">
<PP_INFO>
NOTE!!!!
This file is trimmed with a mesh size of 600 from the original version.
Trimming performed at 2023-03-31 09:10:04.909049 by trim_upf.py version 0.1.0

This pseudopotential file has been produced using the code
ONCVPSP  (Optimized Norm-Conservinng Vanderbilt PSeudopotential)
scalar-relativistic version 3.3.0 08/16/2017 by D. R. Hamann
The code is available through a link at URL www.mat-simresearch.com.
Documentation with the package provides a full discription of the
input data below.
While it is not required under the terms of the GNU GPL, it is
suggested that you cite D. R. Hamann, Phys. Rev. B 88, 085117 (2013)
in any publication using these pseudopotentials.
<PP_INPUTFILE>
# ATOM AND REFERENCE CONFIGURATION
# atsym  z   nc   nv     iexc    psfile
Li  3.00    0    2       4      upf
#
#   n    l    f        energy (Ha)
1    0    2.00
2    0    1.00
#
# PSEUDOPOTENTIAL AND OPTIMIZATION
# lmax
1
#
#   l,   rc,      ep,       ncon, nbas, qcut
0   1.40000  -1.90562    4    8   8.60000
1   1.10000   0.00000    4    8   9.00000
#
# LOCAL POTENTIAL
# lloc, lpopt,  rc(5),   dvloc0
4    5   1.10000      0.00000
#
# VANDERBILT-KLEINMAN-BYLANDER PROJECTORs
# l, nproj, debl
0    2   1.80000
1    2   1.00000
#
# MODEL CORE CHARGE
# icmod, fcfact, rcfact
0   0.00000   0.00000
#
# LOG DERIVATIVE ANALYSIS
# epsh1, epsh2, depsh
-12.00   12.00    0.02
#
# OUTPUT GRID
# rlmax, drl
4.00    0.01
#
# TEST CONFIGURATIONS
# ncnf
0
# nvcnf
#   n    l    f
</PP_INPUTFILE>
</PP_INFO>
<!--                               -->
<!-- END OF HUMAN READABLE SECTION -->
<!--                               -->
<PP_HEADER
generated="Generated using ONCVPSP code by D. R. Hamann"
author="anonymous"
date="171031"
comment=""
element="Li"
pseudo_type="NC"
relativistic="scalar"
is_ultrasoft="F"
is_paw="F"
is_coulomb="F"
has_so="F"
has_wfc="F"
has_gipaw="F"
core_correction="F"
functional="PBE"
z_valence="    3.00"
total_psenergy="  -1.42687705968E+01"
rho_cutoff="   1.94300000000E+01"
l_max="1"
l_local="-1"
mesh_size="   600"
number_of_wfc="2"
number_of_proj="4"/>
<PP_MESH>
<PP_R type="real"  size="600" columns="8">
0.0000    0.0100    0.0200    0.0300    0.0400    0.0500    0.0600    0.0700
0.0800    0.0900    0.1000    0.1100    0.1200    0.1300    0.1400    0.1500
0.1600    0.1700    0.1800    0.1900    0.2000    0.2100    0.2200    0.2300
0.2400    0.2500    0.2600    0.2700    0.2800    0.2900    0.3000    0.3100
0.3200    0.3300    0.3400    0.3500    0.3600    0.3700    0.3800    0.3900
0.4000    0.4100    0.4200    0.4300    0.4400    0.4500    0.4600    0.4700
0.4800    0.4900    0.5000    0.5100    0.5200    0.5300    0.5400    0.5500
0.5600    0.5700    0.5800    0.5900    0.6000    0.6100    0.6200    0.6300
0.6400    0.6500    0.6600    0.6700    0.6800    0.6900    0.7000    0.7100
0.7200    0.7300    0.7400    0.7500    0.7600    0.7700    0.7800    0.7900
0.8000    0.8100    0.8200    0.8300    0.8400    0.8500    0.8600    0.8700
0.8800    0.8900    0.9000    0.9100    0.9200    0.9300    0.9400    0.9500
0.9600    0.9700    0.9800    0.9900    1.0000    1.0100    1.0200    1.0300
1.0400    1.0500    1.0600    1.0700    1.0800    1.0900    1.1000    1.1100
1.1200    1.1300    1.1400    1.1500    1.1600    1.1700    1.1800    1.1900
1.2000    1.2100    1.2200    1.2300    1.2400    1.2500    1.2600    1.2700
1.2800    1.2900    1.3000    1.3100    1.3200    1.3300    1.3400    1.3500
1.3600    1.3700    1.3800    1.3900    1.4000    1.4100    1.4200    1.4300
1.4400    1.4500    1.4600    1.4700    1.4800    1.4900    1.5000    1.5100
1.5200    1.5300    1.5400    1.5500    1.5600    1.5700    1.5800    1.5900
1.6000    1.6100    1.6200    1.6300    1.6400    1.6500    1.6600    1.6700
1.6800    1.6900    1.7000    1.7100    1.7200    1.7300    1.7400    1.7500
1.7600    1.7700    1.7800    1.7900    1.8000    1.8100    1.8200    1.8300
1.8400    1.8500    1.8600    1.8700    1.8800    1.8900    1.9000    1.9100
1.9200    1.9300    1.9400    1.9500    1.9600    1.9700    1.9800    1.9900
2.0000    2.0100    2.0200    2.0300    2.0400    2.0500    2.0600    2.0700
2.0800    2.0900    2.1000    2.1100    2.1200    2.1300    2.1400    2.1500
2.1600    2.1700    2.1800    2.1900    2.2000    2.2100    2.2200    2.2300
2.2400    2.2500    2.2600    2.2700    2.2800    2.2900    2.3000    2.3100
2.3200    2.3300    2.3400    2.3500    2.3600    2.3700    2.3800    2.3900
2.4000    2.4100    2.4200    2.4300    2.4400    2.4500    2.4600    2.4700
2.4800    2.4900    2.5000    2.5100    2.5200    2.5300    2.5400    2.5500
2.5600    2.5700    2.5800    2.5900    2.6000    2.6100    2.6200    2.6300
2.6400    2.6500    2.6600    2.6700    2.6800    2.6900    2.7000    2.7100
2.7200    2.7300    2.7400    2.7500    2.7600    2.7700    2.7800    2.7900
2.8000    2.8100    2.8200    2.8300    2.8400    2.8500    2.8600    2.8700
2.8800    2.8900    2.9000    2.9100    2.9200    2.9300    2.9400    2.9500
2.9600    2.9700    2.9800    2.9900    3.0000    3.0100    3.0200    3.0300
3.0400    3.0500    3.0600    3.0700    3.0800    3.0900    3.1000    3.1100
3.1200    3.1300    3.1400    3.1500    3.1600    3.1700    3.1800    3.1900
3.2000    3.2100    3.2200    3.2300    3.2400    3.2500    3.2600    3.2700
3.2800    3.2900    3.3000    3.3100    3.3200    3.3300    3.3400    3.3500
3.3600    3.3700    3.3800    3.3900    3.4000    3.4100    3.4200    3.4300
3.4400    3.4500    3.4600    3.4700    3.4800    3.4900    3.5000    3.5100
3.5200    3.5300    3.5400    3.5500    3.5600    3.5700    3.5800    3.5900
3.6000    3.6100    3.6200    3.6300    3.6400    3.6500    3.6600    3.6700
3.6800    3.6900    3.7000    3.7100    3.7200    3.7300    3.7400    3.7500
3.7600    3.7700    3.7800    3.7900    3.8000    3.8100    3.8200    3.8300
3.8400    3.8500    3.8600    3.8700    3.8800    3.8900    3.9000    3.9100
3.9200    3.9300    3.9400    3.9500    3.9600    3.9700    3.9800    3.9900
4.0000    4.0100    4.0200    4.0300    4.0400    4.0500    4.0600    4.0700
4.0800    4.0900    4.1000    4.1100    4.1200    4.1300    4.1400    4.1500
4.1600    4.1700    4.1800    4.1900    4.2000    4.2100    4.2200    4.2300
4.2400    4.2500    4.2600    4.2700    4.2800    4.2900    4.3000    4.3100
4.3200    4.3300    4.3400    4.3500    4.3600    4.3700    4.3800    4.3900
4.4000    4.4100    4.4200    4.4300    4.4400    4.4500    4.4600    4.4700
4.4800    4.4900    4.5000    4.5100    4.5200    4.5300    4.5400    4.5500
4.5600    4.5700    4.5800    4.5900    4.6000    4.6100    4.6200    4.6300
4.6400    4.6500    4.6600    4.6700    4.6800    4.6900    4.7000    4.7100
4.7200    4.7300    4.7400    4.7500    4.7600    4.7700    4.7800    4.7900
4.8000    4.8100    4.8200    4.8300    4.8400    4.8500    4.8600    4.8700
4.8800    4.8900    4.9000    4.9100    4.9200    4.9300    4.9400    4.9500
4.9600    4.9700    4.9800    4.9900    5.0000    5.0100    5.0200    5.0300
5.0400    5.0500    5.0600    5.0700    5.0800    5.0900    5.1000    5.1100
5.1200    5.1300    5.1400    5.1500    5.1600    5.1700    5.1800    5.1900
5.2000    5.2100    5.2200    5.2300    5.2400    5.2500    5.2600    5.2700
5.2800    5.2900    5.3000    5.3100    5.3200    5.3300    5.3400    5.3500
5.3600    5.3700    5.3800    5.3900    5.4000    5.4100    5.4200    5.4300
5.4400    5.4500    5.4600    5.4700    5.4800    5.4900    5.5000    5.5100
5.5200    5.5300    5.5400    5.5500    5.5600    5.5700    5.5800    5.5900
5.6000    5.6100    5.6200    5.6300    5.6400    5.6500    5.6600    5.6700
5.6800    5.6900    5.7000    5.7100    5.7200    5.7300    5.7400    5.7500
5.7600    5.7700    5.7800    5.7900    5.8000    5.8100    5.8200    5.8300
5.8400    5.8500    5.8600    5.8700    5.8800    5.8900    5.9000    5.9100
5.9200    5.9300    5.9400    5.9500    5.9600    5.9700    5.9800    5.9900
</PP_R>
<PP_RAB type="real"  size="600" columns="8">
0.0100    0.0100    0.0100    0.0100    0.0100    0.0100    0.0100    0.0100
0.0100    0.0100    0.0100    0.0100    0.0100    0.0100    0.0100    0.0100
0.0100    0.0100    0.0100    0.0100    0.0100    0.0100    0.0100    0.0100
0.0100    0.0100    0.0100    0.0100    0.0100    0.0100    0.0100    0.0100
0.0100    0.0100    0.0100    0.0100    0.0100    0.0100    0.0100    0.0100
0.0100    0.0100    0.0100    0.0100    0.0100    0.0100    0.0100    0.0100
0.0100    0.0100    0.0100    0.0100    0.0100    0.0100    0.0100    0.0100
0.0100    0.0100    0.0100    0.0100    0.0100    0.0100    0.0100    0.0100
0.0100    0.0100    0.0100    0.0100    0.0100    0.0100    0.0100    0.0100
0.0100    0.0100    0.0100    0.0100    0.0100    0.0100    0.0100    0.0100
0.0100    0.0100    0.0100    0.0100    0.0100    0.0100    0.0100    0.0100
0.0100    0.0100    0.0100    0.0100    0.0100    0.0100    0.0100    0.0100
0.0100    0.0100    0.0100    0.0100    0.0100    0.0100    0.0100    0.0100
0.0100    0.0100    0.0100    0.0100    0.0100    0.0100    0.0100    0.0100
0.0100    0.0100    0.0100    0.0100    0.0100    0.0100    0.0100    0.0100
0.0100    0.0100    0.0100    0.0100    0.0100    0.0100    0.0100    0.0100
0.0100    0.0100    0.0100    0.0100    0.0100    0.0100    0.0100    0.0100
0.0100    0.0100    0.0100    0.0100    0.0100    0.0100    0.0100    0.0100
0.0100    0.0100    0.0100    0.0100    0.0100    0.0100    0.0100    0.0100
0.0100    0.0100    0.0100    0.0100    0.0100    0.0100    0.0100    0.0100
0.0100    0.0100    0.0100    0.0100    0.0100    0.0100    0.0100    0.0100
0.0100    0.0100    0.0100    0.0100    0.0100    0.0100    0.0100    0.0100
0.0100    0.0100    0.0100    0.0100    0.0100    0.0100    0.0100    0.0100
0.0100    0.0100    0.0100    0.0100    0.0100    0.0100    0.0100    0.0100
0.0100    0.0100    0.0100    0.0100    0.0100    0.0100    0.0100    0.0100
0.0100    0.0100    0.0100    0.0100    0.0100    0.0100    0.0100    0.0100
0.0100    0.0100    0.0100    0.0100    0.0100    0.0100    0.0100    0.0100
0.0100    0.0100    0.0100    0.0100    0.0100    0.0100    0.0100    0.0100
0.0100    0.0100    0.0100    0.0100    0.0100    0.0100    0.0100    0.0100
0.0100    0.0100    0.0100    0.0100    0.0100    0.0100    0.0100    0.0100
0.0100    0.0100    0.0100    0.0100    0.0100    0.0100    0.0100    0.0100
0.0100    0.0100    0.0100    0.0100    0.0100    0.0100    0.0100    0.0100
0.0100    0.0100    0.0100    0.0100    0.0100    0.0100    0.0100    0.0100
0.0100    0.0100    0.0100    0.0100    0.0100    0.0100    0.0100    0.0100
0.0100    0.0100    0.0100    0.0100    0.0100    0.0100    0.0100    0.0100
0.0100    0.0100    0.0100    0.0100    0.0100    0.0100    0.0100    0.0100
0.0100    0.0100    0.0100    0.0100    0.0100    0.0100    0.0100    0.0100
0.0100    0.0100    0.0100    0.0100    0.0100    0.0100    0.0100    0.0100
0.0100    0.0100    0.0100    0.0100    0.0100    0.0100    0.0100    0.0100
0.0100    0.0100    0.0100    0.0100    0.0100    0.0100    0.0100    0.0100
0.0100    0.0100    0.0100    0.0100    0.0100    0.0100    0.0100    0.0100
0.0100    0.0100    0.0100    0.0100    0.0100    0.0100    0.0100    0.0100
0.0100    0.0100    0.0100    0.0100    0.0100    0.0100    0.0100    0.0100
0.0100    0.0100    0.0100    0.0100    0.0100    0.0100    0.0100    0.0100
0.0100    0.0100    0.0100    0.0100    0.0100    0.0100    0.0100    0.0100
0.0100    0.0100    0.0100    0.0100    0.0100    0.0100    0.0100    0.0100
0.0100    0.0100    0.0100    0.0100    0.0100    0.0100    0.0100    0.0100
0.0100    0.0100    0.0100    0.0100    0.0100    0.0100    0.0100    0.0100
0.0100    0.0100    0.0100    0.0100    0.0100    0.0100    0.0100    0.0100
0.0100    0.0100    0.0100    0.0100    0.0100    0.0100    0.0100    0.0100
0.0100    0.0100    0.0100    0.0100    0.0100    0.0100    0.0100    0.0100
0.0100    0.0100    0.0100    0.0100    0.0100    0.0100    0.0100    0.0100
0.0100    0.0100    0.0100    0.0100    0.0100    0.0100    0.0100    0.0100
0.0100    0.0100    0.0100    0.0100    0.0100    0.0100    0.0100    0.0100
0.0100    0.0100    0.0100    0.0100    0.0100    0.0100    0.0100    0.0100
0.0100    0.0100    0.0100    0.0100    0.0100    0.0100    0.0100    0.0100
0.0100    0.0100    0.0100    0.0100    0.0100    0.0100    0.0100    0.0100
0.0100    0.0100    0.0100    0.0100    0.0100    0.0100    0.0100    0.0100
0.0100    0.0100    0.0100    0.0100    0.0100    0.0100    0.0100    0.0100
0.0100    0.0100    0.0100    0.0100    0.0100    0.0100    0.0100    0.0100
0.0100    0.0100    0.0100    0.0100    0.0100    0.0100    0.0100    0.0100
0.0100    0.0100    0.0100    0.0100    0.0100    0.0100    0.0100    0.0100
0.0100    0.0100    0.0100    0.0100    0.0100    0.0100    0.0100    0.0100
0.0100    0.0100    0.0100    0.0100    0.0100    0.0100    0.0100    0.0100
0.0100    0.0100    0.0100    0.0100    0.0100    0.0100    0.0100    0.0100
0.0100    0.0100    0.0100    0.0100    0.0100    0.0100    0.0100    0.0100
0.0100    0.0100    0.0100    0.0100    0.0100    0.0100    0.0100    0.0100
0.0100    0.0100    0.0100    0.0100    0.0100    0.0100    0.0100    0.0100
0.0100    0.0100    0.0100    0.0100    0.0100    0.0100    0.0100    0.0100
0.0100    0.0100    0.0100    0.0100    0.0100    0.0100    0.0100    0.0100
0.0100    0.0100    0.0100    0.0100    0.0100    0.0100    0.0100    0.0100
0.0100    0.0100    0.0100    0.0100    0.0100    0.0100    0.0100    0.0100
0.0100    0.0100    0.0100    0.0100    0.0100    0.0100    0.0100    0.0100
0.0100    0.0100    0.0100    0.0100    0.0100    0.0100    0.0100    0.0100
0.0100    0.0100    0.0100    0.0100    0.0100    0.0100    0.0100    0.0100
</PP_RAB>
</PP_MESH>
<PP_LOCAL type="real"  size="600" columns="4">
-1.2589136911E+01   -1.2587310442E+01   -1.2581837249E+01   -1.2572735913E+01
-1.2560037062E+01   -1.2543782895E+01   -1.2524026522E+01   -1.2500831167E+01
-1.2474269261E+01   -1.2444421432E+01   -1.2411375462E+01   -1.2375225207E+01
-1.2336069532E+01   -1.2294011276E+01   -1.2249156279E+01   -1.2201612471E+01
-1.2151489065E+01   -1.2098895825E+01   -1.2043942449E+01   -1.1986738040E+01
-1.1927390682E+01   -1.1866007092E+01   -1.1802692365E+01   -1.1737549786E+01
-1.1670680703E+01   -1.1602184453E+01   -1.1532158328E+01   -1.1460697578E+01
-1.1387895429E+01   -1.1313843123E+01   -1.1238629964E+01   -1.1162343369E+01
-1.1085068914E+01   -1.1006890372E+01   -1.0927889750E+01   -1.0848147304E+01
-1.0767741549E+01   -1.0686749244E+01   -1.0605245373E+01   -1.0523303103E+01
-1.0440993721E+01   -1.0358386564E+01   -1.0275548926E+01   -1.0192545949E+01
-1.0109440501E+01   -1.0026293031E+01   -9.9431614188E+00   -9.8601008051E+00
-9.7771634078E+00   -9.6943983306E+00   -9.6118513617E+00   -9.5295647665E+00
-9.4475770797E+00   -9.3659229002E+00   -9.2846326950E+00   -9.2037326203E+00
-9.1232443661E+00   -9.0431850356E+00   -8.9635670672E+00   -8.8843982105E+00
-8.8056815667E+00   -8.7274157020E+00   -8.6495948435E+00   -8.5722091632E+00
-8.4952451539E+00   -8.4186860988E+00   -8.3425126291E+00   -8.2667033645E+00
-8.1912356244E+00   -8.1160861938E+00   -8.0412321247E+00   -7.9666515530E+00
-7.8923245046E+00   -7.8182336681E+00   -7.7443651090E+00   -7.6707089046E+00
-7.5972596772E+00   -7.5240170129E+00   -7.4509857514E+00   -7.3781761425E+00
-7.3056038654E+00   -7.2332899155E+00   -7.1612603647E+00   -7.0895460085E+00
-7.0181819117E+00   -6.9472068730E+00   -6.8766628240E+00   -6.8065941833E+00
-6.7370471836E+00   -6.6680691907E+00   -6.5997080297E+00   -6.5320113340E+00
-6.4650259286E+00   -6.3987972584E+00   -6.3333688677E+00   -6.2687819374E+00
-6.2050748816E+00   -6.1422830035E+00   -6.0804382117E+00   -6.0195687914E+00
-5.9596992285E+00   -5.9008500805E+00   -5.8430378892E+00   -5.7862751289E+00
-5.7305701838E+00   -5.6759273500E+00   -5.6223468533E+00   -5.5698248813E+00
-5.5183536211E+00   -5.4679212992E+00   -5.4185122649E+00   -5.3701068747E+00
-5.3226819700E+00   -5.2762123542E+00   -5.2306722379E+00   -5.1860355880E+00
-5.1422760441E+00   -5.0993670091E+00   -5.0572816881E+00   -5.0159931249E+00
-4.9754742355E+00   -4.9356978408E+00   -4.8966366982E+00   -4.8582635360E+00
-4.8205510898E+00   -4.7834721435E+00   -4.7469995750E+00   -4.7111064077E+00
-4.6757658682E+00   -4.6409514506E+00   -4.6066369880E+00   -4.5727967310E+00
-4.5394054356E+00   -4.5064384642E+00   -4.4738718826E+00   -4.4416825090E+00
-4.4098485634E+00   -4.3783489354E+00   -4.3471636945E+00   -4.3162731317E+00
-4.2856657951E+00   -4.2553530582E+00   -4.2253752208E+00   -4.1958073447E+00
-4.1666745925E+00   -4.1379424948E+00   -4.1095986168E+00   -4.0816420269E+00
-4.0540635766E+00   -4.0268552095E+00   -4.0000096913E+00   -3.9735198622E+00
-3.9473786946E+00   -3.9215793621E+00   -3.8961152184E+00   -3.8709797862E+00
-3.8461667525E+00   -3.8216699631E+00   -3.7974834166E+00   -3.7736012588E+00
-3.7500177771E+00   -3.7267273956E+00   -3.7037246700E+00   -3.6810042829E+00
-3.6585610394E+00   -3.6363898633E+00   -3.6144857935E+00   -3.5928439812E+00
-3.5714596875E+00   -3.5503282812E+00   -3.5294452383E+00   -3.5088061404E+00
-3.4884066752E+00   -3.4682426362E+00   -3.4483099229E+00   -3.4286045413E+00
-3.4091226032E+00   -3.3898603260E+00   -3.3708140307E+00   -3.3519801395E+00
-3.3333551712E+00   -3.3149357372E+00   -3.2967185341E+00   -3.2787003374E+00
-3.2608779943E+00   -3.2432484161E+00   -3.2258085724E+00   -3.2085554850E+00
-3.1914862246E+00   -3.1745979079E+00   -3.1578876963E+00   -3.1413527962E+00
-3.1249904597E+00   -3.1087979855E+00   -3.0927727210E+00   -3.0769120630E+00
-3.0612134591E+00   -3.0456744083E+00   -3.0302924608E+00   -3.0150652186E+00
-2.9999903341E+00   -2.9850655097E+00   -2.9702884965E+00   -2.9556570930E+00
-2.9411691442E+00   -2.9268225396E+00   -2.9126152120E+00   -2.8985451366E+00
-2.8846103288E+00   -2.8708088439E+00   -2.8571387751E+00   -2.8435982528E+00
-2.8301854434E+00   -2.8168985485E+00   -2.8037358033E+00   -2.7906954766E+00
-2.7777758691E+00   -2.7649753134E+00   -2.7522921723E+00   -2.7397248388E+00
-2.7272717350E+00   -2.7149313118E+00   -2.7027020476E+00   -2.6905824483E+00
-2.6785710463E+00   -2.6666664000E+00   -2.6548670934E+00   -2.6431717352E+00
-2.6315789586E+00   -2.6200874204E+00   -2.6086958010E+00   -2.5974028033E+00
-2.5862071527E+00   -2.5751075964E+00   -2.5641029028E+00   -2.5531918615E+00
-2.5423732823E+00   -2.5316459953E+00   -2.5210088500E+00   -2.5104607153E+00
-2.5000004788E+00   -2.4896270467E+00   -2.4793393430E+00   -2.4691363097E+00
-2.4590169059E+00   -2.4489801077E+00   -2.4390249080E+00   -2.4291503157E+00
-2.4193553560E+00   -2.4096390695E+00   -2.4000005123E+00   -2.3904387554E+00
-2.3809528846E+00   -2.3715420002E+00   -2.3622052166E+00   -2.3529416621E+00
-2.3437504786E+00   -2.3346308213E+00   -2.3255818586E+00   -2.3166027717E+00
-2.3076927544E+00   -2.2988510128E+00   -2.2900767651E+00   -2.2813692416E+00
-2.2727276839E+00   -2.2641513454E+00   -2.2556394904E+00   -2.2471913946E+00
-2.2388063442E+00   -2.2304836360E+00   -2.2222225775E+00   -2.2140224861E+00
-2.2058826895E+00   -2.1978025250E+00   -2.1897813398E+00   -2.1818184905E+00
-2.1739133430E+00   -2.1660652723E+00   -2.1582736626E+00   -2.1505379067E+00
-2.1428574062E+00   -2.1352315712E+00   -2.1276598201E+00   -2.1201415797E+00
-2.1126762846E+00   -2.1052633776E+00   -2.0979023091E+00   -2.0905925373E+00
-2.0833335277E+00   -2.0761247536E+00   -2.0689656951E+00   -2.0618558398E+00
-2.0547946822E+00   -2.0477817236E+00   -2.0408164722E+00   -2.0338984429E+00
-2.0270271570E+00   -2.0202021424E+00   -2.0134229333E+00   -2.0066890700E+00
-2.0000000992E+00   -1.9933555734E+00   -1.9867550510E+00   -1.9801980965E+00
-1.9736842798E+00   -1.9672131767E+00   -1.9607843683E+00   -1.9543974414E+00
-1.9480519881E+00   -1.9417476057E+00   -1.9354838966E+00   -1.9292604687E+00
-1.9230769345E+00   -1.9169329117E+00   -1.9108280228E+00   -1.9047618951E+00
-1.8987341605E+00   -1.8927444559E+00   -1.8867924223E+00   -1.8808777055E+00
-1.8749999556E+00   -1.8691588273E+00   -1.8633539792E+00   -1.8575850744E+00
-1.8518517802E+00   -1.8461537677E+00   -1.8404907124E+00   -1.8348622934E+00
-1.8292681940E+00   -1.8237081014E+00   -1.8181817062E+00   -1.8126887031E+00
-1.8072287904E+00   -1.8018016699E+00   -1.7964070471E+00   -1.7910446310E+00
-1.7857141341E+00   -1.7804152721E+00   -1.7751477643E+00   -1.7699113332E+00
-1.7647057047E+00   -1.7595306076E+00   -1.7543857743E+00   -1.7492709400E+00
-1.7441858431E+00   -1.7391302250E+00   -1.7341038301E+00   -1.7291064058E+00
-1.7241377023E+00   -1.7191974727E+00   -1.7142854730E+00   -1.7094014619E+00
-1.7045452008E+00   -1.6997164540E+00   -1.6949149882E+00   -1.6901405729E+00
-1.6853929802E+00   -1.6806719846E+00   -1.6759773633E+00   -1.6713088959E+00
-1.6666663644E+00   -1.6620495534E+00   -1.6574582495E+00   -1.6528922421E+00
-1.6483513227E+00   -1.6438352850E+00   -1.6393439252E+00   -1.6348770414E+00
-1.6304344342E+00   -1.6260159061E+00   -1.6216212621E+00   -1.6172503088E+00
-1.6129028553E+00   -1.6085787126E+00   -1.6042776936E+00   -1.5999996134E+00
-1.5957442890E+00   -1.5915115393E+00   -1.5873011852E+00   -1.5831130492E+00
-1.5789469562E+00   -1.5748027324E+00   -1.5706802061E+00   -1.5665792075E+00
-1.5624995682E+00   -1.5584411219E+00   -1.5544037039E+00   -1.5503871511E+00
-1.5463913022E+00   -1.5424159976E+00   -1.5384610792E+00   -1.5345263906E+00
-1.5306117770E+00   -1.5267170852E+00   -1.5228421634E+00   -1.5189868615E+00
-1.5151510309E+00   -1.5113345244E+00   -1.5075371964E+00   -1.5037589027E+00
-1.4999995005E+00   -1.4962588485E+00   -1.4925368067E+00   -1.4888332367E+00
-1.4851480013E+00   -1.4814809646E+00   -1.4778319922E+00   -1.4742009509E+00
-1.4705877089E+00   -1.4669921356E+00   -1.4634141018E+00   -1.4598534794E+00
-1.4563101417E+00   -1.4527839630E+00   -1.4492748191E+00   -1.4457825868E+00
-1.4423071441E+00   -1.4388483703E+00   -1.4354061457E+00   -1.4319803518E+00
-1.4285708714E+00   -1.4251775880E+00   -1.4218003867E+00   -1.4184391532E+00
-1.4150937747E+00   -1.4117641393E+00   -1.4084501360E+00   -1.4051516550E+00
-1.4018685876E+00   -1.3986008259E+00   -1.3953482632E+00   -1.3921107937E+00
-1.3888883125E+00   -1.3856807158E+00   -1.3824879008E+00   -1.3793097654E+00
-1.3761462087E+00   -1.3729971306E+00   -1.3698624320E+00   -1.3667420145E+00
-1.3636357807E+00   -1.3605436343E+00   -1.3574654796E+00   -1.3544012218E+00
-1.3513507670E+00   -1.3483140222E+00   -1.3452908952E+00   -1.3422812945E+00
-1.3392851296E+00   -1.3363023108E+00   -1.3333327489E+00   -1.3303763560E+00
-1.3274330445E+00   -1.3245027278E+00   -1.3215853200E+00   -1.3186807361E+00
-1.3157888917E+00   -1.3129097031E+00   -1.3100430874E+00   -1.3071889625E+00
-1.3043472469E+00   -1.3015178599E+00   -1.2987007213E+00   -1.2958957519E+00
-1.2931028729E+00   -1.2903220063E+00   -1.2875530749E+00   -1.2847960019E+00
-1.2820507113E+00   -1.2793171278E+00   -1.2765951766E+00   -1.2738847836E+00
-1.2711858754E+00   -1.2684983791E+00   -1.2658222226E+00   -1.2631573341E+00
-1.2605036426E+00   -1.2578610778E+00   -1.2552295698E+00   -1.2526090494E+00
-1.2499994479E+00   -1.2474006971E+00   -1.2448127296E+00   -1.2422354783E+00
-1.2396688769E+00   -1.2371128594E+00   -1.2345673606E+00   -1.2320323157E+00
-1.2295076602E+00   -1.2269933307E+00   -1.2244892637E+00   -1.2219953966E+00
-1.2195116673E+00   -1.2170380139E+00   -1.2145743754E+00   -1.2121206910E+00
-1.2096769006E+00   -1.2072429443E+00   -1.2048187630E+00   -1.2024042979E+00
-1.1999994907E+00   -1.1976042835E+00   -1.1952186191E+00   -1.1928424404E+00
-1.1904756910E+00   -1.1881183149E+00   -1.1857702565E+00   -1.1834314607E+00
-1.1811018728E+00   -1.1787814385E+00   -1.1764701040E+00   -1.1741678158E+00
-1.1718745209E+00   -1.1695901668E+00   -1.1673147013E+00   -1.1650480725E+00
-1.1627902291E+00   -1.1605411202E+00   -1.1583006951E+00   -1.1560689036E+00
-1.1538456960E+00   -1.1516310227E+00   -1.1494248348E+00   -1.1472270836E+00
-1.1450377208E+00   -1.1428566984E+00   -1.1406839689E+00   -1.1385194851E+00
-1.1363632001E+00   -1.1342150674E+00   -1.1320750408E+00   -1.1299430747E+00
-1.1278191234E+00   -1.1257031420E+00   -1.1235950856E+00   -1.1214949098E+00
-1.1194025705E+00   -1.1173180239E+00   -1.1152412265E+00   -1.1131721353E+00
-1.1111107073E+00   -1.1090569002E+00   -1.1070106717E+00   -1.1049719800E+00
-1.1029407834E+00   -1.1009170408E+00   -1.0989007112E+00   -1.0968917539E+00
-1.0948901285E+00   -1.0928957951E+00   -1.0909087137E+00   -1.0889288450E+00
-1.0869561498E+00   -1.0849905891E+00   -1.0830321242E+00   -1.0810807169E+00
-1.0791363290E+00   -1.0771989228E+00   -1.0752684607E+00   -1.0733449054E+00
-1.0714282200E+00   -1.0695183676E+00   -1.0676153119E+00   -1.0657190166E+00
-1.0638294458E+00   -1.0619465636E+00   -1.0600703348E+00   -1.0582007241E+00
-1.0563376964E+00   -1.0544812173E+00   -1.0526312520E+00   -1.0507877665E+00
-1.0489507268E+00   -1.0471200990E+00   -1.0452958497E+00   -1.0434779457E+00
-1.0416663538E+00   -1.0398610412E+00   -1.0380619754E+00   -1.0362691239E+00
-1.0344824547E+00   -1.0327019359E+00   -1.0309275356E+00   -1.0291592224E+00
-1.0273969651E+00   -1.0256407327E+00   -1.0238904941E+00   -1.0221462189E+00
-1.0204078766E+00   -1.0186754370E+00   -1.0169488700E+00   -1.0152281459E+00
-1.0135132351E+00   -1.0118041080E+00   -1.0101007356E+00   -1.0084030889E+00
-1.0067111389E+00   -1.0050248570E+00   -1.0033442149E+00   -1.0016691843E+00
</PP_LOCAL>
<PP_NONLOCAL>
<PP_BETA.1
type="real"
size="600"
columns="4"
index="1"
angular_momentum="0"
cutoff_radius_index=" 144"
cutoff_radius="    1.4300000000E+00" >
-6.2443850091E-10    9.4750499223E-02    1.8919152370E-01    2.8301518730E-01
3.7591676780E-01    4.6759625576E-01    5.5775986413E-01    6.4612148632E-01
7.3240409085E-01    8.1634104189E-01    8.9767733531E-01    9.7617074154E-01
1.0515928470E+00    1.1237299874E+00    1.1923840677E+00    1.2573732641E+00
1.3185326059E+00    1.3757144343E+00    1.4287887406E+00    1.4776433818E+00
1.5221841792E+00    1.5623349008E+00    1.5980371352E+00    1.6292500602E+00
1.6559501152E+00    1.6781305835E+00    1.6958010940E+00    1.7089870500E+00
1.7177289961E+00    1.7220819310E+00    1.7221145774E+00    1.7179086183E+00
1.7095579083E+00    1.6971676712E+00    1.6808536905E+00    1.6607415025E+00
1.6369655991E+00    1.6096686470E+00    1.5790007296E+00    1.5451186162E+00
1.5081850631E+00    1.4683681490E+00    1.4258406472E+00    1.3807794360E+00
1.3333649459E+00    1.2837806447E+00    1.2322125569E+00    1.1788488155E+00
1.1238792432E+00    1.0674949577E+00    1.0098879983E+00    9.5125096695E-01
8.9177667968E-01    8.3165782248E-01    7.7108660629E-01    7.1025441571E-01
6.4935144617E-01    5.8856632513E-01    5.2808571266E-01    4.6809387820E-01
4.0877225022E-01    3.5029893688E-01    2.9284821651E-01    2.3658999745E-01
1.8168924817E-01    1.2830539931E-01    7.6591720438E-02    2.6694675346E-02
-2.1246739449E-02   -6.7101667178E-02   -1.1074806778E-01   -1.5207339200E-01
-1.9097524455E-01   -2.2736202783E-01   -2.6115355718E-01   -2.9228163833E-01
-3.2069059763E-01   -3.4633775575E-01   -3.6919383543E-01   -3.8924329464E-01
-4.0648457658E-01   -4.2093026892E-01   -4.3260716538E-01   -4.4155622377E-01
-4.4783241558E-01   -4.5150446365E-01   -4.5265446550E-01   -4.5137740156E-01
-4.4778052876E-01   -4.4198266176E-01   -4.3411334522E-01   -4.2431192253E-01
-4.1272650751E-01   -3.9951286726E-01   -3.8483322577E-01   -3.6885499909E-01
-3.5174947407E-01   -3.3369044384E-01   -3.1485281394E-01   -2.9541119389E-01
-2.7553848947E-01   -2.5540451141E-01   -2.3517461614E-01   -2.1500839461E-01
-1.9505842436E-01   -1.7546910019E-01   -1.5637555748E-01   -1.3790270174E-01
-1.2016435710E-01   -1.0326254482E-01   -8.7286886355E-02   -7.2314220196E-02
-5.8408172764E-02   -4.5618541445E-02   -3.3980782433E-02   -2.3515996744E-02
-1.4231208214E-02   -6.1197440285E-03    8.3821853849E-04    6.6749599606E-03
1.1434389386E-02    1.5171088578E-02    1.7949240618E-02    1.9841456926E-02
2.0927517056E-02    2.1293036570E-02    2.1028079888E-02    2.0225734957E-02
1.8980667237E-02    1.7387670971E-02    1.5540234954E-02    1.3529140735E-02
1.1441109836E-02    9.3575157922E-03    7.3531773338E-03    5.4952456172E-03
3.8424105028E-03    2.4438022900E-03    1.3316862913E-03    5.4711588871E-04
1.1938513062E-04   -2.6462250795E-05   -1.9761656216E-05    7.9091246382E-06
0. 0. 0. 0.
0. 0. 0. 0.
0. 0. 0. 0.
0. 0. 0. 0.
0. 0. 0. 0.
0. 0. 0. 0.
0. 0. 0. 0.
0. 0. 0. 0.
0. 0. 0. 0.
0. 0. 0. 0.
0. 0. 0. 0.
0. 0. 0. 0.
0. 0. 0. 0.
0. 0. 0. 0.
0. 0. 0. 0.
0. 0. 0. 0.
0. 0. 0. 0.
0. 0. 0. 0.
0. 0. 0. 0.
0. 0. 0. 0.
0. 0. 0. 0.
0. 0. 0. 0.
0. 0. 0. 0.
0. 0. 0. 0.
0. 0. 0. 0.
0. 0. 0. 0.
0. 0. 0. 0.
0. 0. 0. 0.
0. 0. 0. 0.
0. 0. 0. 0.
0. 0. 0. 0.
0. 0. 0. 0.
0. 0. 0. 0.
0. 0. 0. 0.
0. 0. 0. 0.
0. 0. 0. 0.
0. 0. 0. 0.
0. 0. 0. 0.
0. 0. 0. 0.
0. 0. 0. 0.
0. 0. 0. 0.
0. 0. 0. 0.
0. 0. 0. 0.
0. 0. 0. 0.
0. 0. 0. 0.
0. 0. 0. 0.
0. 0. 0. 0.
0. 0. 0. 0.
0. 0. 0. 0.
0. 0. 0. 0.
0. 0. 0. 0.
0. 0. 0. 0.
0. 0. 0. 0.
0. 0. 0. 0.
0. 0. 0. 0.
0. 0. 0. 0.
0. 0. 0. 0.
0. 0. 0. 0.
0. 0. 0. 0.
0. 0. 0. 0.
0. 0. 0. 0.
0. 0. 0. 0.
0. 0. 0. 0.
0. 0. 0. 0.
0. 0. 0. 0.
0. 0. 0. 0.
0. 0. 0. 0.
0. 0. 0. 0.
0. 0. 0. 0.
0. 0. 0. 0.
0. 0. 0. 0.
0. 0. 0. 0.
0. 0. 0. 0.
0. 0. 0. 0.
0. 0. 0. 0.
0. 0. 0. 0.
0. 0. 0. 0.
0. 0. 0. 0.
0. 0. 0. 0.
0. 0. 0. 0.
0. 0. 0. 0.
0. 0. 0. 0.
0. 0. 0. 0.
0. 0. 0. 0.
0. 0. 0. 0.
0. 0. 0. 0.
0. 0. 0. 0.
0. 0. 0. 0.
0. 0. 0. 0.
0. 0. 0. 0.
0. 0. 0. 0.
0. 0. 0. 0.
0. 0. 0. 0.
0. 0. 0. 0.
0. 0. 0. 0.
0. 0. 0. 0.
0. 0. 0. 0.
0. 0. 0. 0.
0. 0. 0. 0.
0. 0. 0. 0.
0. 0. 0. 0.
0. 0. 0. 0.
0. 0. 0. 0.
0. 0. 0. 0.
0. 0. 0. 0.
0. 0. 0. 0.
0. 0. 0. 0.
0. 0. 0. 0.
0. 0. 0. 0.
0. 0. 0. 0.
0. 0. 0. 0.
0. 0. 0. 0.
0. 0. 0. 0.
0. 0. 0. 0.
</PP_BETA.1>
<PP_BETA.2
type="real"
size="600"
columns="4"
index="2"
angular_momentum="0"
cutoff_radius_index=" 144"
cutoff_radius="    1.4300000000E+00" >