<UPF version="2.0.1">
<PP_INFO>
NOTE!!!!
This file is trimmed with a mesh size of 600 from the original version.
Trimming performed at 2023-03-31 09:10:05.096763 by trim_upf.py version 0.1.0

This pseudopotential file has been produced using the code
ONCVPSP  (Optimized Norm-Conservinng Vanderbilt PSeudopotential)
scalar-relativistic version 3.3.0 08/16/2017 by D. R. Hamann
The code is available through a link at URL www.mat-simresearch.com.
Documentation with the package provides a full discription of the
input data below.
While it is not required under the terms of the GNU GPL, it is
suggested that you cite D. R. Hamann, Phys. Rev. B 88, 085117 (2013)
in any publication using these pseudopotentials.
<PP_INPUTFILE>
# ATOM AND REFERENCE CONFIGURATION
# atsym  z   nc   nv     iexc    psfile
Lu 71.00    9    5       4      upf
#
#   n    l    f        energy (Ha)
1    0    2.00
2    0    2.00
2    1    6.00
3    0    2.00
3    1    6.00
3    2   10.00
4    0    2.00
4    1    6.00
4    2   10.00
5    0    2.00
5    1    6.00
4    3   14.00
5    2    1.00
6    0    2.00
#
# PSEUDOPOTENTIAL AND OPTIMIZATION
# lmax
3
#
#   l,   rc,      ep,       ncon, nbas, qcut
0   1.55000  -2.24389    4    8   7.50000
1   1.60000  -1.16354    4    8   8.00000
2   1.45000  -0.06429    4    8   9.00000
3   1.85000  -0.35367    4    8   9.80000
#
# LOCAL POTENTIAL
# lloc, lpopt,  rc(5),   dvloc0
4    5   1.30000      0.00000
#
# VANDERBILT-KLEINMAN-BYLANDER PROJECTORs
# l, nproj, debl
0    2   2.07266
1    2   1.11413
2    2   1.00000
3    2   1.50000
#
# MODEL CORE CHARGE
# icmod, fcfact, rcfact
3   4.00000   1.40000
#
# LOG DERIVATIVE ANALYSIS
# epsh1, epsh2, depsh
-12.00   12.00    0.02
#
# OUTPUT GRID
# rlmax, drl
6.00    0.01
#
# TEST CONFIGURATIONS
# ncnf
0
# nvcnf
#   n    l    f
</PP_INPUTFILE>
</PP_INFO>
<!--                               -->
<!-- END OF HUMAN READABLE SECTION -->
<!--                               -->
<PP_HEADER
generated="Generated using ONCVPSP code by D. R. Hamann"
author="anonymous"
date="171031"
comment=""
element="Lu"
pseudo_type="NC"
relativistic="scalar"
is_ultrasoft="F"
is_paw="F"
is_coulomb="F"
has_so="F"
has_wfc="F"
has_gipaw="F"
core_correction="T"
functional="PBE"
z_valence="   25.00"
total_psenergy="  -4.67706127468E+02"
rho_cutoff="   2.03100000000E+01"
l_max="3"
l_local="-1"
mesh_size="   600"
number_of_wfc="5"
number_of_proj="8"/>
<PP_MESH>
<PP_R type="real"  size="600" columns="8">
0.0000    0.0100    0.0200    0.0300    0.0400    0.0500    0.0600    0.0700
0.0800    0.0900    0.1000    0.1100    0.1200    0.1300    0.1400    0.1500
0.1600    0.1700    0.1800    0.1900    0.2000    0.2100    0.2200    0.2300
0.2400    0.2500    0.2600    0.2700    0.2800    0.2900    0.3000    0.3100
0.3200    0.3300    0.3400    0.3500    0.3600    0.3700    0.3800    0.3900
0.4000    0.4100    0.4200    0.4300    0.4400    0.4500    0.4600    0.4700
0.4800    0.4900    0.5000    0.5100    0.5200    0.5300    0.5400    0.5500
0.5600    0.5700    0.5800    0.5900    0.6000    0.6100    0.6200    0.6300
0.6400    0.6500    0.6600    0.6700    0.6800    0.6900    0.7000    0.7100
0.7200    0.7300    0.7400    0.7500    0.7600    0.7700    0.7800    0.7900
0.8000    0.8100    0.8200    0.8300    0.8400    0.8500    0.8600    0.8700
0.8800    0.8900    0.9000    0.9100    0.9200    0.9300    0.9400    0.9500
0.9600    0.9700    0.9800    0.9900    1.0000    1.0100    1.0200    1.0300
1.0400    1.0500    1.0600    1.0700    1.0800    1.0900    1.1000    1.1100
1.1200    1.1300    1.1400    1.1500    1.1600    1.1700    1.1800    1.1900
1.2000    1.2100    1.2200    1.2300    1.2400    1.2500    1.2600    1.2700
1.2800    1.2900    1.3000    1.3100    1.3200    1.3300    1.3400    1.3500
1.3600    1.3700    1.3800    1.3900    1.4000    1.4100    1.4200    1.4300
1.4400    1.4500    1.4600    1.4700    1.4800    1.4900    1.5000    1.5100
1.5200    1.5300    1.5400    1.5500    1.5600    1.5700    1.5800    1.5900
1.6000    1.6100    1.6200    1.6300    1.6400    1.6500    1.6600    1.6700
1.6800    1.6900    1.7000    1.7100    1.7200    1.7300    1.7400    1.7500
1.7600    1.7700    1.7800    1.7900    1.8000    1.8100    1.8200    1.8300
1.8400    1.8500    1.8600    1.8700    1.8800    1.8900    1.9000    1.9100
1.9200    1.9300    1.9400    1.9500    1.9600    1.9700    1.9800    1.9900
2.0000    2.0100    2.0200    2.0300    2.0400    2.0500    2.0600    2.0700
2.0800    2.0900    2.1000    2.1100    2.1200    2.1300    2.1400    2.1500
2.1600    2.1700    2.1800    2.1900    2.2000    2.2100    2.2200    2.2300
2.2400    2.2500    2.2600    2.2700    2.2800    2.2900    2.3000    2.3100
2.3200    2.3300    2.3400    2.3500    2.3600    2.3700    2.3800    2.3900
2.4000    2.4100    2.4200    2.4300    2.4400    2.4500    2.4600    2.4700
2.4800    2.4900    2.5000    2.5100    2.5200    2.5300    2.5400    2.5500
2.5600    2.5700    2.5800    2.5900    2.6000    2.6100    2.6200    2.6300
2.6400    2.6500    2.6600    2.6700    2.6800    2.6900    2.7000    2.7100
2.7200    2.7300    2.7400    2.7500    2.7600    2.7700    2.7800    2.7900
2.8000    2.8100    2.8200    2.8300    2.8400    2.8500    2.8600    2.8700
2.8800    2.8900    2.9000    2.9100    2.9200    2.9300    2.9400    2.9500
2.9600    2.9700    2.9800    2.9900    3.0000    3.0100    3.0200    3.0300
3.0400    3.0500    3.0600    3.0700    3.0800    3.0900    3.1000    3.1100
3.1200    3.1300    3.1400    3.1500    3.1600    3.1700    3.1800    3.1900
3.2000    3.2100    3.2200    3.2300    3.2400    3.2500    3.2600    3.2700
3.2800    3.2900    3.3000    3.3100    3.3200    3.3300    3.3400    3.3500
3.3600    3.3700    3.3800    3.3900    3.4000    3.4100    3.4200    3.4300
3.4400    3.4500    3.4600    3.4700    3.4800    3.4900    3.5000    3.5100
3.5200    3.5300    3.5400    3.5500    3.5600    3.5700    3.5800    3.5900
3.6000    3.6100    3.6200    3.6300    3.6400    3.6500    3.6600    3.6700
3.6800    3.6900    3.7000    3.7100    3.7200    3.7300    3.7400    3.7500
3.7600    3.7700    3.7800    3.7900    3.8000    3.8100    3.8200    3.8300
3.8400    3.8500    3.8600    3.8700    3.8800    3.8900    3.9000    3.9100
3.9200    3.9300    3.9400    3.9500    3.9600    3.9700    3.9800    3.9900
4.0000    4.0100    4.0200    4.0300    4.0400    4.0500    4.0600    4.0700
4.0800    4.0900    4.1000    4.1100    4.1200    4.1300    4.1400    4.1500
4.1600    4.1700    4.1800    4.1900    4.2000    4.2100    4.2200    4.2300
4.2400    4.2500    4.2600    4.2700    4.2800    4.2900    4.3000    4.3100
4.3200    4.3300    4.3400    4.3500    4.3600    4.3700    4.3800    4.3900
4.4000    4.4100    4.4200    4.4300    4.4400    4.4500    4.4600    4.4700
4.4800    4.4900    4.5000    4.5100    4.5200    4.5300    4.5400    4.5500
4.5600    4.5700    4.5800    4.5900    4.6000    4.6100    4.6200    4.6300
4.6400    4.6500    4.6600    4.6700    4.6800    4.6900    4.7000    4.7100
4.7200    4.7300    4.7400    4.7500    4.7600    4.7700    4.7800    4.7900
4.8000    4.8100    4.8200    4.8300    4.8400    4.8500    4.8600    4.8700
4.8800    4.8900    4.9000    4.9100    4.9200    4.9300    4.9400    4.9500
4.9600    4.9700    4.9800    4.9900    5.0000    5.0100    5.0200    5.0300
5.0400    5.0500    5.0600    5.0700    5.0800    5.0900    5.1000    5.1100
5.1200    5.1300    5.1400    5.1500    5.1600    5.1700    5.1800    5.1900
5.2000    5.2100    5.2200    5.2300    5.2400    5.2500    5.2600    5.2700
5.2800    5.2900    5.3000    5.3100    5.3200    5.3300    5.3400    5.3500
5.3600    5.3700    5.3800    5.3900    5.4000    5.4100    5.4200    5.4300
5.4400    5.4500    5.4600    5.4700    5.4800    5.4900    5.5000    5.5100
5.5200    5.5300    5.5400    5.5500    5.5600    5.5700    5.5800    5.5900
5.6000    5.6100    5.6200    5.6300    5.6400    5.6500    5.6600    5.6700
5.6800    5.6900    5.7000    5.7100    5.7200    5.7300    5.7400    5.7500
5.7600    5.7700    5.7800    5.7900    5.8000    5.8100    5.8200    5.8300
5.8400    5.8500    5.8600    5.8700    5.8800    5.8900    5.9000    5.9100
5.9200    5.9300    5.9400    5.9500    5.9600    5.9700    5.9800    5.9900
</PP_R>
<PP_RAB type="real"  size="600" columns="8">
0.0100    0.0100    0.0100    0.0100    0.0100    0.0100    0.0100    0.0100
0.0100    0.0100    0.0100    0.0100    0.0100    0.0100    0.0100    0.0100
0.0100    0.0100    0.0100    0.0100    0.0100    0.0100    0.0100    0.0100
0.0100    0.0100    0.0100    0.0100    0.0100    0.0100    0.0100    0.0100
0.0100    0.0100    0.0100    0.0100    0.0100    0.0100    0.0100    0.0100
0.0100    0.0100    0.0100    0.0100    0.0100    0.0100    0.0100    0.0100
0.0100    0.0100    0.0100    0.0100    0.0100    0.0100    0.0100    0.0100
0.0100    0.0100    0.0100    0.0100    0.0100    0.0100    0.0100    0.0100
0.0100    0.0100    0.0100    0.0100    0.0100    0.0100    0.0100    0.0100
0.0100    0.0100    0.0100    0.0100    0.0100    0.0100    0.0100    0.0100
0.0100    0.0100    0.0100    0.0100    0.0100    0.0100    0.0100    0.0100
0.0100    0.0100    0.0100    0.0100    0.0100    0.0100    0.0100    0.0100
0.0100    0.0100    0.0100    0.0100    0.0100    0.0100    0.0100    0.0100
0.0100    0.0100    0.0100    0.0100    0.0100    0.0100    0.0100    0.0100
0.0100    0.0100    0.0100    0.0100    0.0100    0.0100    0.0100    0.0100
0.0100    0.0100    0.0100    0.0100    0.0100    0.0100    0.0100    0.0100
0.0100    0.0100    0.0100    0.0100    0.0100    0.0100    0.0100    0.0100
0.0100    0.0100    0.0100    0.0100    0.0100    0.0100    0.0100    0.0100
0.0100    0.0100    0.0100    0.0100    0.0100    0.0100    0.0100    0.0100
0.0100    0.0100    0.0100    0.0100    0.0100    0.0100    0.0100    0.0100
0.0100    0.0100    0.0100    0.0100    0.0100    0.0100    0.0100    0.0100
0.0100    0.0100    0.0100    0.0100    0.0100    0.0100    0.0100    0.0100
0.0100    0.0100    0.0100    0.0100    0.0100    0.0100    0.0100    0.0100
0.0100    0.0100    0.0100    0.0100    0.0100    0.0100    0.0100    0.0100
0.0100    0.0100    0.0100    0.0100    0.0100    0.0100    0.0100    0.0100
0.0100    0.0100    0.0100    0.0100    0.0100    0.0100    0.0100    0.0100
0.0100    0.0100    0.0100    0.0100    0.0100    0.0100    0.0100    0.0100
0.0100    0.0100    0.0100    0.0100    0.0100    0.0100    0.0100    0.0100
0.0100    0.0100    0.0100    0.0100    0.0100    0.0100    0.0100    0.0100
0.0100    0.0100    0.0100    0.0100    0.0100    0.0100    0.0100    0.0100
0.0100    0.0100    0.0100    0.0100    0.0100    0.0100    0.0100    0.0100
0.0100    0.0100    0.0100    0.0100    0.0100    0.0100    0.0100    0.0100
0.0100    0.0100    0.0100    0.0100    0.0100    0.0100    0.0100    0.0100
0.0100    0.0100    0.0100    0.0100    0.0100    0.0100    0.0100    0.0100
0.0100    0.0100    0.0100    0.0100    0.0100    0.0100    0.0100    0.0100
0.0100    0.0100    0.0100    0.0100    0.0100    0.0100    0.0100    0.0100
0.0100    0.0100    0.0100    0.0100    0.0100    0.0100    0.0100    0.0100
0.0100    0.0100    0.0100    0.0100    0.0100    0.0100    0.0100    0.0100
0.0100    0.0100    0.0100    0.0100    0.0100    0.0100    0.0100    0.0100
0.0100    0.0100    0.0100    0.0100    0.0100    0.0100    0.0100    0.0100
0.0100    0.0100    0.0100    0.0100    0.0100    0.0100    0.0100    0.0100
0.0100    0.0100    0.0100    0.0100    0.0100    0.0100    0.0100    0.0100
0.0100    0.0100    0.0100    0.0100    0.0100    0.0100    0.0100    0.0100
0.0100    0.0100    0.0100    0.0100    0.0100    0.0100    0.0100    0.0100
0.0100    0.0100    0.0100    0.0100    0.0100    0.0100    0.0100    0.0100
0.0100    0.0100    0.0100    0.0100    0.0100    0.0100    0.0100    0.0100
0.0100    0.0100    0.0100    0.0100    0.0100    0.0100    0.0100    0.0100
0.0100    0.0100    0.0100    0.0100    0.0100    0.0100    0.0100    0.0100
0.0100    0.0100    0.0100    0.0100    0.0100    0.0100    0.0100    0.0100
0.0100    0.0100    0.0100    0.0100    0.0100    0.0100    0.0100    0.0100
0.0100    0.0100    0.0100    0.0100    0.0100    0.0100    0.0100    0.0100
0.0100    0.0100    0.0100    0.0100    0.0100    0.0100    0.0100    0.0100
0.0100    0.0100    0.0100    0.0100    0.0100    0.0100    0.0100    0.0100
0.0100    0.0100    0.0100    0.0100    0.0100    0.0100    0.0100    0.0100
0.0100    0.0100    0.0100    0.0100    0.0100    0.0100    0.0100    0.0100
0.0100    0.0100    0.0100    0.0100    0.0100    0.0100    0.0100    0.0100
0.0100    0.0100    0.0100    0.0100    0.0100    0.0100    0.0100    0.0100
0.0100    0.0100    0.0100    0.0100    0.0100    0.0100    0.0100    0.0100
0.0100    0.0100    0.0100    0.0100    0.0100    0.0100    0.0100    0.0100
0.0100    0.0100    0.0100    0.0100    0.0100    0.0100    0.0100    0.0100
0.0100    0.0100    0.0100    0.0100    0.0100    0.0100    0.0100    0.0100
0.0100    0.0100    0.0100    0.0100    0.0100    0.0100    0.0100    0.0100
0.0100    0.0100    0.0100    0.0100    0.0100    0.0100    0.0100    0.0100
0.0100    0.0100    0.0100    0.0100    0.0100    0.0100    0.0100    0.0100
0.0100    0.0100    0.0100    0.0100    0.0100    0.0100    0.0100    0.0100
0.0100    0.0100    0.0100    0.0100    0.0100    0.0100    0.0100    0.0100
0.0100    0.0100    0.0100    0.0100    0.0100    0.0100    0.0100    0.0100
0.0100    0.0100    0.0100    0.0100    0.0100    0.0100    0.0100    0.0100
0.0100    0.0100    0.0100    0.0100    0.0100    0.0100    0.0100    0.0100
0.0100    0.0100    0.0100    0.0100    0.0100    0.0100    0.0100    0.0100
0.0100    0.0100    0.0100    0.0100    0.0100    0.0100    0.0100    0.0100
0.0100    0.0100    0.0100    0.0100    0.0100    0.0100    0.0100    0.0100
0.0100    0.0100    0.0100    0.0100    0.0100    0.0100    0.0100    0.0100
0.0100    0.0100    0.0100    0.0100    0.0100    0.0100    0.0100    0.0100
0.0100    0.0100    0.0100    0.0100    0.0100    0.0100    0.0100    0.0100
</PP_RAB>
</PP_MESH>
<PP_LOCAL type="real"  size="600" columns="4">
-7.0552323505E+01   -7.0550004722E+01   -7.0543049353E+01   -7.0531460515E+01
-7.0515243411E+01   -7.0494405358E+01   -7.0468955832E+01   -7.0438906498E+01
-7.0404271255E+01   -7.0365066261E+01   -7.0321309954E+01   -7.0273023047E+01
-7.0220228491E+01   -7.0162951403E+01   -7.0101218941E+01   -7.0035060131E+01
-6.9964505620E+01   -6.9889587362E+01   -6.9810338227E+01   -6.9726791527E+01
-6.9638980467E+01   -6.9546937513E+01   -6.9450693686E+01   -6.9350277796E+01
-6.9245715617E+01   -6.9137029026E+01   -6.9024235120E+01   -6.8907345330E+01
-6.8786364552E+01   -6.8661290329E+01   -6.8532112095E+01   -6.8398810521E+01
-6.8261356986E+01   -6.8119713203E+01   -6.7973831035E+01   -6.7823652528E+01
-6.7669110195E+01   -6.7510127576E+01   -6.7346620105E+01   -6.7178496292E+01
-6.7005659233E+01   -6.6828008432E+01   -6.6645441909E+01   -6.6457858534E+01
-6.6265160508E+01   -6.6067255875E+01   -6.5864060927E+01   -6.5655502365E+01
-6.5441519043E+01   -6.5222063179E+01   -6.4997100921E+01   -6.4766612239E+01
-6.4530590156E+01   -6.4289039433E+01   -6.4041974863E+01   -6.3789419371E+01
-6.3531402140E+01   -6.3267956960E+01   -6.2999120932E+01   -6.2724933603E+01
-6.2445436557E+01   -6.2160673383E+01   -6.1870689961E+01   -6.1575534942E+01
-6.1275260348E+01   -6.0969922210E+01   -6.0659581237E+01   -6.0344303498E+01
-6.0024161157E+01   -5.9699233295E+01   -5.9369606852E+01   -5.9035377728E+01
-5.8696652004E+01   -5.8353547285E+01   -5.8006194066E+01   -5.7654737056E+01
-5.7299336323E+01   -5.6940168171E+01   -5.6577425624E+01   -5.6211318454E+01
-5.5842072677E+01   -5.5469929543E+01   -5.5095144020E+01   -5.4717982858E+01
-5.4338722327E+01   -5.3957645752E+01   -5.3575040957E+01   -5.3191197750E+01
-5.2806405535E+01   -5.2420951143E+01   -5.2035116922E+01   -5.1649179130E+01
-5.1263406603E+01   -5.0878059723E+01   -5.0493389610E+01   -5.0109637540E+01
-4.9727034524E+01   -4.9345801010E+01   -4.8966146681E+01   -4.8588270314E+01
-4.8212359676E+01   -4.7838591443E+01   -4.7467131134E+01   -4.7098133063E+01
-4.6731740297E+01   -4.6368084648E+01   -4.6007286691E+01   -4.5649455828E+01
-4.5294690401E+01   -4.4943077880E+01   -4.4594695108E+01   -4.4249608639E+01
-4.3907875137E+01   -4.3569541869E+01   -4.3234647247E+01   -4.2903221440E+01
-4.2575287016E+01   -4.2250859609E+01   -4.1929948577E+01   -4.1612557636E+01
-4.1298685435E+01   -4.0988326059E+01   -4.0681469429E+01   -4.0378101592E+01
-4.0078204877E+01   -3.9781757934E+01   -3.9488735624E+01   -3.9199108802E+01
-3.8912843988E+01   -3.8629903012E+01   -3.8350242574E+01   -3.8073812868E+01
-3.7800560472E+01   -3.7530431730E+01   -3.7263376361E+01   -3.6999347752E+01
-3.6738301783E+01   -3.6480196862E+01   -3.6224993606E+01   -3.5972654682E+01
-3.5723144678E+01   -3.5476430011E+01   -3.5232478871E+01   -3.4991261141E+01
-3.4752748373E+01   -3.4516913487E+01   -3.4283730537E+01   -3.4053174418E+01
-3.3825220855E+01   -3.3599846900E+01   -3.3377030678E+01   -3.3156751101E+01
-3.2938987250E+01   -3.2723717864E+01   -3.2510921597E+01   -3.2300577239E+01
-3.2092664130E+01   -3.1887162455E+01   -3.1684053997E+01   -3.1483322060E+01
-3.1284948730E+01   -3.1088917114E+01   -3.0895218236E+01   -3.0703842552E+01
-3.0514769495E+01   -3.0327973531E+01   -3.0143425948E+01   -2.9961097446E+01
-2.9780963558E+01   -2.9602999834E+01   -2.9427178028E+01   -2.9253469426E+01
-2.9081846248E+01   -2.8912280547E+01   -2.8744744003E+01   -2.8579208269E+01
-2.8415645014E+01   -2.8254025905E+01   -2.8094322660E+01   -2.7936507115E+01
-2.7780550815E+01   -2.7626425583E+01   -2.7474103685E+01   -2.7323557225E+01
-2.7174759630E+01   -2.7027683838E+01   -2.6882295054E+01   -2.6738547142E+01
-2.6596387788E+01   -2.6455751694E+01   -2.6316577633E+01   -2.6178831434E+01
-2.6042493801E+01   -2.5907551229E+01   -2.5773991820E+01   -2.5641800945E+01
-2.5510953066E+01   -2.5381421015E+01   -2.5253187194E+01   -2.5126235469E+01
-2.5000548509E+01   -2.4876107766E+01   -2.4752895238E+01   -2.4630893939E+01
-2.4510087087E+01   -2.4390458120E+01   -2.4271990754E+01   -2.4154668981E+01
-2.4038477060E+01   -2.3923399499E+01   -2.3809421043E+01   -2.3696526669E+01
-2.3584701576E+01   -2.3473931180E+01   -2.3364201103E+01   -2.3255497170E+01
-2.3147805403E+01   -2.3041112012E+01   -2.2935403396E+01   -2.2830666132E+01
-2.2726886976E+01   -2.2624052855E+01   -2.2522150866E+01   -2.2421168274E+01
-2.2321092507E+01   -2.2221911157E+01   -2.2123611976E+01   -2.2026182880E+01
-2.1929611943E+01   -2.1833887403E+01   -2.1738997666E+01   -2.1644931299E+01
-2.1551677045E+01   -2.1459223818E+01   -2.1367560713E+01   -2.1276677009E+01
-2.1186562174E+01   -2.1097205871E+01   -2.1008597964E+01   -2.0920728524E+01
-2.0833587831E+01   -2.0747166382E+01   -2.0661454893E+01   -2.0576444301E+01
-2.0492125765E+01   -2.0408490667E+01   -2.0325530613E+01   -2.0243237423E+01
-2.0161603136E+01   -2.0080619997E+01   -2.0000280451E+01   -1.9920577137E+01
-1.9841502875E+01   -1.9763050655E+01   -1.9685213628E+01   -1.9607985090E+01
-1.9531358468E+01   -1.9455327313E+01   -1.9379885277E+01   -1.9305026110E+01
-1.9230743641E+01   -1.9157031766E+01   -1.9083884445E+01   -1.9011295682E+01
-1.8939259523E+01   -1.8867770049E+01   -1.8796821368E+01   -1.8726407611E+01
-1.8656522933E+01   -1.8587161506E+01   -1.8518317524E+01   -1.8449985203E+01
-1.8382158782E+01   -1.8314832528E+01   -1.8248000739E+01   -1.8181657752E+01
-1.8115797946E+01   -1.8050415748E+01   -1.7985505641E+01   -1.7921062168E+01
-1.7857079942E+01   -1.7793553645E+01   -1.7730478043E+01   -1.7667847989E+01
-1.7605658434E+01   -1.7543904440E+01   -1.7482581027E+01   -1.7421683397E+01
-1.7361206674E+01   -1.7301146673E+01   -1.7241499234E+01   -1.7182260162E+01
-1.7123425057E+01   -1.7064989027E+01   -1.7006947142E+01   -1.6949295483E+01
-1.6892027508E+01   -1.6835137766E+01   -1.6778620779E+01   -1.6722473402E+01
-1.6666699876E+01   -1.6611301978E+01   -1.6556284508E+01   -1.6501641078E+01
-1.6447363629E+01   -1.6393444038E+01   -1.6339872464E+01   -1.6286648134E+01
-1.6233767988E+01   -1.6181230282E+01   -1.6129032418E+01   -1.6077170417E+01
-1.6025641012E+01   -1.5974440741E+01   -1.5923566545E+01   -1.5873015369E+01
-1.5822784145E+01   -1.5772869836E+01   -1.5723269458E+01   -1.5673980056E+01
-1.5624998717E+01   -1.5576322562E+01   -1.5527948747E+01   -1.5479874464E+01
-1.5432096939E+01   -1.5384613432E+01   -1.5337421239E+01   -1.5290517686E+01
-1.5243900133E+01   -1.5197565972E+01   -1.5151512627E+01   -1.5105737552E+01
-1.5060238234E+01   -1.5015012187E+01   -1.4970056957E+01   -1.4925370119E+01
-1.4880949276E+01   -1.4836792061E+01   -1.4792896133E+01   -1.4749259180E+01
-1.4705878916E+01   -1.4662753085E+01   -1.4619879453E+01   -1.4577255815E+01
-1.4534879990E+01   -1.4492749824E+01   -1.4450863187E+01   -1.4409217972E+01
-1.4367812100E+01   -1.4326643512E+01   -1.4285710174E+01   -1.4245010076E+01
-1.4204541230E+01   -1.4164301671E+01   -1.4124289455E+01   -1.4084502661E+01
-1.4044939390E+01   -1.4005597762E+01   -1.3966475922E+01   -1.3927572032E+01
-1.3888884275E+01   -1.3850410856E+01   -1.3812149999E+01   -1.3774099945E+01
-1.3736258960E+01   -1.3698625323E+01   -1.3661197335E+01   -1.3623973315E+01
-1.3586951601E+01   -1.3550130547E+01   -1.3513508526E+01   -1.3477083930E+01
-1.3440855166E+01   -1.3404820658E+01   -1.3368978849E+01   -1.3333328198E+01
-1.3297867178E+01   -1.3262594280E+01   -1.3227508013E+01   -1.3192606898E+01
-1.3157889474E+01   -1.3123354294E+01   -1.3088999927E+01   -1.3054824957E+01
-1.3020827982E+01   -1.2987007615E+01   -1.2953362484E+01   -1.2919891230E+01
-1.2886592509E+01   -1.2853464990E+01   -1.2820507356E+01   -1.2787718304E+01
-1.2755096543E+01   -1.2722640797E+01   -1.2690349801E+01   -1.2658222305E+01
-1.2626257069E+01   -1.2594452868E+01   -1.2562808487E+01   -1.2531322725E+01
-1.2499994392E+01   -1.2468822310E+01   -1.2437805314E+01   -1.2406942249E+01
-1.2376231972E+01   -1.2345673350E+01   -1.2315265265E+01   -1.2285006605E+01
-1.2254896272E+01   -1.2224933178E+01   -1.2195116246E+01   -1.2165444409E+01
-1.2135916611E+01   -1.2106531804E+01   -1.2077288953E+01   -1.2048187033E+01
-1.2019225025E+01   -1.1990401925E+01   -1.1961716734E+01   -1.1933168466E+01
-1.1904756142E+01   -1.1876478794E+01   -1.1848335462E+01   -1.1820325196E+01
-1.1792447054E+01   -1.1764700104E+01   -1.1737083422E+01   -1.1709596091E+01
-1.1682237207E+01   -1.1655005870E+01   -1.1627901191E+01   -1.1600922288E+01
-1.1574068288E+01   -1.1547338325E+01   -1.1520731542E+01   -1.1494247089E+01
-1.1467884124E+01   -1.1441641815E+01   -1.1415519333E+01   -1.1389515861E+01
-1.1363630587E+01   -1.1337862707E+01   -1.1312211424E+01   -1.1286675948E+01
-1.1261255497E+01   -1.1235949296E+01   -1.1210756576E+01   -1.1185676575E+01
-1.1160708539E+01   -1.1135851719E+01   -1.1111105375E+01   -1.1086468770E+01
-1.1061941178E+01   -1.1037521875E+01   -1.1013210147E+01   -1.0989005284E+01
-1.0964906583E+01   -1.0940913347E+01   -1.0917024885E+01   -1.0893240513E+01
-1.0869559551E+01   -1.0845981327E+01   -1.0822505174E+01   -1.0799130429E+01
-1.0775856439E+01   -1.0752682552E+01   -1.0729608124E+01   -1.0706632516E+01
-1.0683755094E+01   -1.0660975232E+01   -1.0638292305E+01   -1.0615705697E+01
-1.0593214795E+01   -1.0570818993E+01   -1.0548517687E+01   -1.0526310283E+01
-1.0504196187E+01   -1.0482174813E+01   -1.0460245579E+01   -1.0438407908E+01
-1.0416661227E+01   -1.0395004970E+01   -1.0373438573E+01   -1.0351961478E+01
-1.0330573131E+01   -1.0309272985E+01   -1.0288060494E+01   -1.0266935117E+01
-1.0245896321E+01   -1.0224943573E+01   -1.0204076347E+01   -1.0183294120E+01
-1.0162596374E+01   -1.0141982595E+01   -1.0121452273E+01   -1.0101004902E+01
-1.0080639980E+01   -1.0060357010E+01   -1.0040155498E+01   -1.0020034954E+01
-9.9999948929E+00   -9.9800348321E+00   -9.9601542938E+00   -9.9403528036E+00
-9.9206298910E+00   -9.9009850892E+00   -9.8814179352E+00   -9.8619279694E+00
-9.8425147360E+00   -9.8231777828E+00   -9.8039166610E+00   -9.7847309255E+00
-9.7656201345E+00   -9.7465838498E+00   -9.7276216364E+00   -9.7087330630E+00
-9.6899177014E+00   -9.6711751266E+00   -9.6525049173E+00   -9.6339066550E+00
-9.6153799248E+00   -9.5969243146E+00   -9.5785394158E+00   -9.5602248228E+00
-9.5419801330E+00   -9.5238049470E+00   -9.5056988684E+00   -9.4876615037E+00
-9.4696924626E+00   -9.4517913575E+00   -9.4339578040E+00   -9.4161914203E+00
-9.3984918278E+00   -9.3808586504E+00   -9.3632915150E+00   -9.3457900513E+00
-9.3283538917E+00   -9.3109826715E+00   -9.2936760284E+00   -9.2764336030E+00
-9.2592550387E+00   -9.2421399812E+00   -9.2250880790E+00   -9.2080989832E+00
-9.1911723474E+00   -9.1743078278E+00   -9.1575050832E+00   -9.1407637747E+00
-9.1240835659E+00   -9.1074641230E+00   -9.0909051146E+00   -9.0744062115E+00
-9.0579670872E+00   -9.0415874173E+00   -9.0252668798E+00   -9.0090051552E+00
-8.9928019261E+00   -8.9766568773E+00   -8.9605696962E+00   -8.9445400722E+00
-8.9285676968E+00   -8.9126522641E+00   -8.8967934699E+00   -8.8809910125E+00
-8.8652445922E+00   -8.8495539115E+00   -8.8339186749E+00   -8.8183385891E+00
-8.8028133628E+00   -8.7873427067E+00   -8.7719263336E+00   -8.7565639583E+00
-8.7412552976E+00   -8.7260000703E+00   -8.7107979971E+00   -8.6956488006E+00
-8.6805522055E+00   -8.6655079383E+00   -8.6505157273E+00   -8.6355753029E+00
-8.6206863972E+00   -8.6058487441E+00   -8.5910620795E+00   -8.5763261409E+00
-8.5616406679E+00   -8.5470054015E+00   -8.5324200849E+00   -8.5178844625E+00
-8.5033982811E+00   -8.4889612886E+00   -8.4745732350E+00   -8.4602338719E+00
-8.4459429526E+00   -8.4317002318E+00   -8.4175054663E+00   -8.4033584142E+00
-8.3892588353E+00   -8.3752064911E+00   -8.3612011447E+00   -8.3472425605E+00
</PP_LOCAL>
<PP_NONLOCAL>
<PP_BETA.1
type="real"
size="600"
columns="4"
index="1"
angular_momentum="0"
cutoff_radius_index=" 192"
cutoff_radius="    1.9100000000E+00" >
-1.2338646771E-10    4.7262389376E-02    9.4483052399E-02    1.4162031364E-01
1.8863259789E-01    2.3547847620E-01    2.8211670719E-01    3.2850627205E-01
3.7460640213E-01    4.2037659766E-01    4.6577663690E-01    5.1076657467E-01
5.5530672993E-01    5.9935766183E-01    6.4288013432E-01    6.8583506946E-01
7.2818348975E-01    7.6988645044E-01    8.1090496256E-01    8.5119990803E-01
8.9073194836E-01    9.2946142868E-01    9.6734827898E-01    1.0043519148E+00
1.0404311399E+00    1.0755440526E+00    1.1096479597E+00    1.1426992995E+00
1.1746535770E+00    1.2054653146E+00    1.2350880194E+00    1.2634741719E+00
1.2905752368E+00    1.3163416987E+00    1.3407231253E+00    1.3636682596E+00
1.3851251422E+00    1.4050412660E+00    1.4233637631E+00    1.4400396254E+00
1.4550159580E+00    1.4682402660E+00    1.4796607729E+00    1.4892267709E+00
1.4968889992E+00    1.5026000497E+00    1.5063147975E+00    1.5079908517E+00
1.5075890244E+00    1.5050738126E+00    1.5004138901E+00    1.4935826031E+00
1.4845584662E+00    1.4733256511E+00    1.4598744653E+00    1.4442018132E+00
1.4263116343E+00    1.4062153130E+00    1.3839320542E+00    1.3594892190E+00
1.3329226148E+00    1.3042767350E+00    1.2736049431E+00    1.2409695974E+00
1.2064421106E+00    1.1701029432E+00    1.1320415252E+00    1.0923561058E+00
1.0511535281E+00    1.0085489286E+00    9.6466536104E-01    9.1963334488E-01
8.7359034058E-01    8.2668015285E-01    7.7905226563E-01    7.3086111216E-01
6.8226528485E-01    6.3342669015E-01    5.8450965447E-01    5.3567998778E-01
4.8710401218E-01    4.3894756322E-01    3.9137497222E-01    3.4454803833E-01
2.9862499925E-01    2.5375950975E-01    2.1009963739E-01    1.6778688471E-01
1.2695524713E-01    8.7730315636E-02    5.0228433067E-02    1.4555912340E-02
-1.9191675385E-02   -5.0930135293E-02   -8.0587199539E-02   -1.0810298795E-01
-1.3343037366E-01   -1.5653524939E-01   -1.7739669109E-01   -1.9600701652E-01
-2.1237173743E-01   -2.2650940515E-01   -2.3845135010E-01   -2.4824131734E-01
-2.5593500058E-01   -2.6159947892E-01   -2.6531256073E-01   -2.6716204066E-01
-2.6724487623E-01   -2.6566629147E-01   -2.6253881556E-01   -2.5798126526E-01
-2.5211768036E-01   -2.4507622167E-01   -2.3698804157E-01   -2.2798613716E-01
-2.1820419626E-01   -2.0777544634E-01   -1.9683151631E-01   -1.8550132097E-01
-1.7390997722E-01   -1.6217776094E-01   -1.5041911260E-01   -1.3874169918E-01
-1.2724553885E-01   -1.1602219428E-01   -1.0515403965E-01   -9.4713602984E-02
-8.4762990728E-02   -7.5353416029E-02   -6.6524794100E-02   -5.8305141307E-02
-5.0711422421E-02   -4.3750787411E-02   -3.7422260825E-02   -3.1717479272E-02
-2.6621076098E-02   -2.2111443395E-02   -1.8161428071E-02   -1.4739105782E-02
-1.1808582416E-02   -9.3308239751E-03   -7.2645040995E-03   -5.5668588919E-03
-4.1945397002E-03   -3.1044528127E-03   -2.2545774299E-03   -1.6047533902E-03
-1.1174269206E-03   -7.5834553294E-04   -4.9719732193E-04   -3.0818874128E-04
-1.7054493045E-04   -6.9356788730E-05    5.5847131193E-06    6.2098741687E-05
8.7936132943E-05    5.9719712117E-05    8.1052403816E-06   -1.0075046916E-05
-1.1663529660E-06    2.2140261709E-06    3.2667625730E-08   -2.4322388162E-07
0.0000000000E+00    0.0000000000E+00    0.0000000000E+00    0.0000000000E+00
0.0000000000E+00    0.0000000000E+00    0.0000000000E+00    0.0000000000E+00
0.0000000000E+00    0.0000000000E+00    0.0000000000E+00    0.0000000000E+00
0.0000000000E+00    0.0000000000E+00    0.0000000000E+00    0.0000000000E+00
0.0000000000E+00    0.0000000000E+00    0.0000000000E+00    0.0000000000E+00
0.0000000000E+00    0.0000000000E+00    0.0000000000E+00    0.0000000000E+00
0.0000000000E+00    0.0000000000E+00    0.0000000000E+00    0.0000000000E+00
0. 0. 0. 0.
0. 0. 0. 0.
0. 0. 0. 0.
0. 0. 0. 0.
0. 0. 0. 0.
0. 0. 0. 0.
0. 0. 0. 0.
0. 0. 0. 0.
0. 0. 0. 0.
0. 0. 0. 0.
0. 0. 0. 0.
0. 0. 0. 0.
0. 0. 0. 0.
0. 0. 0. 0.
0. 0. 0. 0.
0. 0. 0. 0.
0. 0. 0. 0.
0. 0. 0. 0.
0. 0. 0. 0.
0. 0. 0. 0.
0. 0. 0. 0.
0. 0. 0. 0.
0. 0. 0. 0.
0. 0. 0. 0.