<UPF version="2.0.1">
<PP_INFO>
NOTE!!!!
This file is trimmed with a mesh size of 600 from the original version.
Trimming performed at 2023-03-31 09:10:05.143064 by trim_upf.py version 0.1.0

This pseudopotential file has been produced using the code
ONCVPSP  (Optimized Norm-Conservinng Vanderbilt PSeudopotential)
scalar-relativistic version 3.3.0 08/16/2017 by D. R. Hamann
The code is available through a link at URL www.mat-simresearch.com.
Documentation with the package provides a full discription of the
input data below.
While it is not required under the terms of the GNU GPL, it is
suggested that you cite D. R. Hamann, Phys. Rev. B 88, 085117 (2013)
in any publication using these pseudopotentials.
<PP_INPUTFILE>
# ATOM AND REFERENCE CONFIGURATION
# atsym  z   nc   nv     iexc    psfile
Mg 12.00    1    3       4      upf
#
#   n    l    f        energy (Ha)
1    0    2.00
2    0    2.00
2    1    6.00
3    0    2.00
#
# PSEUDOPOTENTIAL AND OPTIMIZATION
# lmax
1
#
#   l,   rc,      ep,       ncon, nbas, qcut
0   1.15000  -2.93427    4    8   9.10000
1   1.55000  -1.71303    4    8   9.00000
#
# LOCAL POTENTIAL
# lloc, lpopt,  rc(5),   dvloc0
4    5   1.10000      0.00000
#
# VANDERBILT-KLEINMAN-BYLANDER PROJECTORs
# l, nproj, debl
0    2   2.76134
1    2   3.00000
#
# MODEL CORE CHARGE
# icmod, fcfact, rcfact
0   0.00000   0.00000
#
# LOG DERIVATIVE ANALYSIS
# epsh1, epsh2, depsh
-12.00   12.00    0.02
#
# OUTPUT GRID
# rlmax, drl
4.00    0.01
#
# TEST CONFIGURATIONS
# ncnf
0
# nvcnf
#   n    l    f
</PP_INPUTFILE>
</PP_INFO>
<!--                               -->
<!-- END OF HUMAN READABLE SECTION -->
<!--                               -->
<PP_HEADER
generated="Generated using ONCVPSP code by D. R. Hamann"
author="anonymous"
date="171031"
comment=""
element="Mg"
pseudo_type="NC"
relativistic="scalar"
is_ultrasoft="F"
is_paw="F"
is_coulomb="F"
has_so="F"
has_wfc="F"
has_gipaw="F"
core_correction="F"
functional="PBE"
z_valence="   10.00"
total_psenergy="  -1.18682947258E+02"
rho_cutoff="   1.50900000000E+01"
l_max="1"
l_local="-1"
mesh_size="   600"
number_of_wfc="3"
number_of_proj="4"/>
<PP_MESH>
<PP_R type="real"  size="600" columns="8">
0.0000    0.0100    0.0200    0.0300    0.0400    0.0500    0.0600    0.0700
0.0800    0.0900    0.1000    0.1100    0.1200    0.1300    0.1400    0.1500
0.1600    0.1700    0.1800    0.1900    0.2000    0.2100    0.2200    0.2300
0.2400    0.2500    0.2600    0.2700    0.2800    0.2900    0.3000    0.3100
0.3200    0.3300    0.3400    0.3500    0.3600    0.3700    0.3800    0.3900
0.4000    0.4100    0.4200    0.4300    0.4400    0.4500    0.4600    0.4700
0.4800    0.4900    0.5000    0.5100    0.5200    0.5300    0.5400    0.5500
0.5600    0.5700    0.5800    0.5900    0.6000    0.6100    0.6200    0.6300
0.6400    0.6500    0.6600    0.6700    0.6800    0.6900    0.7000    0.7100
0.7200    0.7300    0.7400    0.7500    0.7600    0.7700    0.7800    0.7900
0.8000    0.8100    0.8200    0.8300    0.8400    0.8500    0.8600    0.8700
0.8800    0.8900    0.9000    0.9100    0.9200    0.9300    0.9400    0.9500
0.9600    0.9700    0.9800    0.9900    1.0000    1.0100    1.0200    1.0300
1.0400    1.0500    1.0600    1.0700    1.0800    1.0900    1.1000    1.1100
1.1200    1.1300    1.1400    1.1500    1.1600    1.1700    1.1800    1.1900
1.2000    1.2100    1.2200    1.2300    1.2400    1.2500    1.2600    1.2700
1.2800    1.2900    1.3000    1.3100    1.3200    1.3300    1.3400    1.3500
1.3600    1.3700    1.3800    1.3900    1.4000    1.4100    1.4200    1.4300
1.4400    1.4500    1.4600    1.4700    1.4800    1.4900    1.5000    1.5100
1.5200    1.5300    1.5400    1.5500    1.5600    1.5700    1.5800    1.5900
1.6000    1.6100    1.6200    1.6300    1.6400    1.6500    1.6600    1.6700
1.6800    1.6900    1.7000    1.7100    1.7200    1.7300    1.7400    1.7500
1.7600    1.7700    1.7800    1.7900    1.8000    1.8100    1.8200    1.8300
1.8400    1.8500    1.8600    1.8700    1.8800    1.8900    1.9000    1.9100
1.9200    1.9300    1.9400    1.9500    1.9600    1.9700    1.9800    1.9900
2.0000    2.0100    2.0200    2.0300    2.0400    2.0500    2.0600    2.0700
2.0800    2.0900    2.1000    2.1100    2.1200    2.1300    2.1400    2.1500
2.1600    2.1700    2.1800    2.1900    2.2000    2.2100    2.2200    2.2300
2.2400    2.2500    2.2600    2.2700    2.2800    2.2900    2.3000    2.3100
2.3200    2.3300    2.3400    2.3500    2.3600    2.3700    2.3800    2.3900
2.4000    2.4100    2.4200    2.4300    2.4400    2.4500    2.4600    2.4700
2.4800    2.4900    2.5000    2.5100    2.5200    2.5300    2.5400    2.5500
2.5600    2.5700    2.5800    2.5900    2.6000    2.6100    2.6200    2.6300
2.6400    2.6500    2.6600    2.6700    2.6800    2.6900    2.7000    2.7100
2.7200    2.7300    2.7400    2.7500    2.7600    2.7700    2.7800    2.7900
2.8000    2.8100    2.8200    2.8300    2.8400    2.8500    2.8600    2.8700
2.8800    2.8900    2.9000    2.9100    2.9200    2.9300    2.9400    2.9500
2.9600    2.9700    2.9800    2.9900    3.0000    3.0100    3.0200    3.0300
3.0400    3.0500    3.0600    3.0700    3.0800    3.0900    3.1000    3.1100
3.1200    3.1300    3.1400    3.1500    3.1600    3.1700    3.1800    3.1900
3.2000    3.2100    3.2200    3.2300    3.2400    3.2500    3.2600    3.2700
3.2800    3.2900    3.3000    3.3100    3.3200    3.3300    3.3400    3.3500
3.3600    3.3700    3.3800    3.3900    3.4000    3.4100    3.4200    3.4300
3.4400    3.4500    3.4600    3.4700    3.4800    3.4900    3.5000    3.5100
3.5200    3.5300    3.5400    3.5500    3.5600    3.5700    3.5800    3.5900
3.6000    3.6100    3.6200    3.6300    3.6400    3.6500    3.6600    3.6700
3.6800    3.6900    3.7000    3.7100    3.7200    3.7300    3.7400    3.7500
3.7600    3.7700    3.7800    3.7900    3.8000    3.8100    3.8200    3.8300
3.8400    3.8500    3.8600    3.8700    3.8800    3.8900    3.9000    3.9100
3.9200    3.9300    3.9400    3.9500    3.9600    3.9700    3.9800    3.9900
4.0000    4.0100    4.0200    4.0300    4.0400    4.0500    4.0600    4.0700
4.0800    4.0900    4.1000    4.1100    4.1200    4.1300    4.1400    4.1500
4.1600    4.1700    4.1800    4.1900    4.2000    4.2100    4.2200    4.2300
4.2400    4.2500    4.2600    4.2700    4.2800    4.2900    4.3000    4.3100
4.3200    4.3300    4.3400    4.3500    4.3600    4.3700    4.3800    4.3900
4.4000    4.4100    4.4200    4.4300    4.4400    4.4500    4.4600    4.4700
4.4800    4.4900    4.5000    4.5100    4.5200    4.5300    4.5400    4.5500
4.5600    4.5700    4.5800    4.5900    4.6000    4.6100    4.6200    4.6300
4.6400    4.6500    4.6600    4.6700    4.6800    4.6900    4.7000    4.7100
4.7200    4.7300    4.7400    4.7500    4.7600    4.7700    4.7800    4.7900
4.8000    4.8100    4.8200    4.8300    4.8400    4.8500    4.8600    4.8700
4.8800    4.8900    4.9000    4.9100    4.9200    4.9300    4.9400    4.9500
4.9600    4.9700    4.9800    4.9900    5.0000    5.0100    5.0200    5.0300
5.0400    5.0500    5.0600    5.0700    5.0800    5.0900    5.1000    5.1100
5.1200    5.1300    5.1400    5.1500    5.1600    5.1700    5.1800    5.1900
5.2000    5.2100    5.2200    5.2300    5.2400    5.2500    5.2600    5.2700
5.2800    5.2900    5.3000    5.3100    5.3200    5.3300    5.3400    5.3500
5.3600    5.3700    5.3800    5.3900    5.4000    5.4100    5.4200    5.4300
5.4400    5.4500    5.4600    5.4700    5.4800    5.4900    5.5000    5.5100
5.5200    5.5300    5.5400    5.5500    5.5600    5.5700    5.5800    5.5900
5.6000    5.6100    5.6200    5.6300    5.6400    5.6500    5.6600    5.6700
5.6800    5.6900    5.7000    5.7100    5.7200    5.7300    5.7400    5.7500
5.7600    5.7700    5.7800    5.7900    5.8000    5.8100    5.8200    5.8300
5.8400    5.8500    5.8600    5.8700    5.8800    5.8900    5.9000    5.9100
5.9200    5.9300    5.9400    5.9500    5.9600    5.9700    5.9800    5.9900
</PP_R>
<PP_RAB type="real"  size="600" columns="8">
0.0100    0.0100    0.0100    0.0100    0.0100    0.0100    0.0100    0.0100
0.0100    0.0100    0.0100    0.0100    0.0100    0.0100    0.0100    0.0100
0.0100    0.0100    0.0100    0.0100    0.0100    0.0100    0.0100    0.0100
0.0100    0.0100    0.0100    0.0100    0.0100    0.0100    0.0100    0.0100
0.0100    0.0100    0.0100    0.0100    0.0100    0.0100    0.0100    0.0100
0.0100    0.0100    0.0100    0.0100    0.0100    0.0100    0.0100    0.0100
0.0100    0.0100    0.0100    0.0100    0.0100    0.0100    0.0100    0.0100
0.0100    0.0100    0.0100    0.0100    0.0100    0.0100    0.0100    0.0100
0.0100    0.0100    0.0100    0.0100    0.0100    0.0100    0.0100    0.0100
0.0100    0.0100    0.0100    0.0100    0.0100    0.0100    0.0100    0.0100
0.0100    0.0100    0.0100    0.0100    0.0100    0.0100    0.0100    0.0100
0.0100    0.0100    0.0100    0.0100    0.0100    0.0100    0.0100    0.0100
0.0100    0.0100    0.0100    0.0100    0.0100    0.0100    0.0100    0.0100
0.0100    0.0100    0.0100    0.0100    0.0100    0.0100    0.0100    0.0100
0.0100    0.0100    0.0100    0.0100    0.0100    0.0100    0.0100    0.0100
0.0100    0.0100    0.0100    0.0100    0.0100    0.0100    0.0100    0.0100
0.0100    0.0100    0.0100    0.0100    0.0100    0.0100    0.0100    0.0100
0.0100    0.0100    0.0100    0.0100    0.0100    0.0100    0.0100    0.0100
0.0100    0.0100    0.0100    0.0100    0.0100    0.0100    0.0100    0.0100
0.0100    0.0100    0.0100    0.0100    0.0100    0.0100    0.0100    0.0100
0.0100    0.0100    0.0100    0.0100    0.0100    0.0100    0.0100    0.0100
0.0100    0.0100    0.0100    0.0100    0.0100    0.0100    0.0100    0.0100
0.0100    0.0100    0.0100    0.0100    0.0100    0.0100    0.0100    0.0100
0.0100    0.0100    0.0100    0.0100    0.0100    0.0100    0.0100    0.0100
0.0100    0.0100    0.0100    0.0100    0.0100    0.0100    0.0100    0.0100
0.0100    0.0100    0.0100    0.0100    0.0100    0.0100    0.0100    0.0100
0.0100    0.0100    0.0100    0.0100    0.0100    0.0100    0.0100    0.0100
0.0100    0.0100    0.0100    0.0100    0.0100    0.0100    0.0100    0.0100
0.0100    0.0100    0.0100    0.0100    0.0100    0.0100    0.0100    0.0100
0.0100    0.0100    0.0100    0.0100    0.0100    0.0100    0.0100    0.0100
0.0100    0.0100    0.0100    0.0100    0.0100    0.0100    0.0100    0.0100
0.0100    0.0100    0.0100    0.0100    0.0100    0.0100    0.0100    0.0100
0.0100    0.0100    0.0100    0.0100    0.0100    0.0100    0.0100    0.0100
0.0100    0.0100    0.0100    0.0100    0.0100    0.0100    0.0100    0.0100
0.0100    0.0100    0.0100    0.0100    0.0100    0.0100    0.0100    0.0100
0.0100    0.0100    0.0100    0.0100    0.0100    0.0100    0.0100    0.0100
0.0100    0.0100    0.0100    0.0100    0.0100    0.0100    0.0100    0.0100
0.0100    0.0100    0.0100    0.0100    0.0100    0.0100    0.0100    0.0100
0.0100    0.0100    0.0100    0.0100    0.0100    0.0100    0.0100    0.0100
0.0100    0.0100    0.0100    0.0100    0.0100    0.0100    0.0100    0.0100
0.0100    0.0100    0.0100    0.0100    0.0100    0.0100    0.0100    0.0100
0.0100    0.0100    0.0100    0.0100    0.0100    0.0100    0.0100    0.0100
0.0100    0.0100    0.0100    0.0100    0.0100    0.0100    0.0100    0.0100
0.0100    0.0100    0.0100    0.0100    0.0100    0.0100    0.0100    0.0100
0.0100    0.0100    0.0100    0.0100    0.0100    0.0100    0.0100    0.0100
0.0100    0.0100    0.0100    0.0100    0.0100    0.0100    0.0100    0.0100
0.0100    0.0100    0.0100    0.0100    0.0100    0.0100    0.0100    0.0100
0.0100    0.0100    0.0100    0.0100    0.0100    0.0100    0.0100    0.0100
0.0100    0.0100    0.0100    0.0100    0.0100    0.0100    0.0100    0.0100
0.0100    0.0100    0.0100    0.0100    0.0100    0.0100    0.0100    0.0100
0.0100    0.0100    0.0100    0.0100    0.0100    0.0100    0.0100    0.0100
0.0100    0.0100    0.0100    0.0100    0.0100    0.0100    0.0100    0.0100
0.0100    0.0100    0.0100    0.0100    0.0100    0.0100    0.0100    0.0100
0.0100    0.0100    0.0100    0.0100    0.0100    0.0100    0.0100    0.0100
0.0100    0.0100    0.0100    0.0100    0.0100    0.0100    0.0100    0.0100
0.0100    0.0100    0.0100    0.0100    0.0100    0.0100    0.0100    0.0100
0.0100    0.0100    0.0100    0.0100    0.0100    0.0100    0.0100    0.0100
0.0100    0.0100    0.0100    0.0100    0.0100    0.0100    0.0100    0.0100
0.0100    0.0100    0.0100    0.0100    0.0100    0.0100    0.0100    0.0100
0.0100    0.0100    0.0100    0.0100    0.0100    0.0100    0.0100    0.0100
0.0100    0.0100    0.0100    0.0100    0.0100    0.0100    0.0100    0.0100
0.0100    0.0100    0.0100    0.0100    0.0100    0.0100    0.0100    0.0100
0.0100    0.0100    0.0100    0.0100    0.0100    0.0100    0.0100    0.0100
0.0100    0.0100    0.0100    0.0100    0.0100    0.0100    0.0100    0.0100
0.0100    0.0100    0.0100    0.0100    0.0100    0.0100    0.0100    0.0100
0.0100    0.0100    0.0100    0.0100    0.0100    0.0100    0.0100    0.0100
0.0100    0.0100    0.0100    0.0100    0.0100    0.0100    0.0100    0.0100
0.0100    0.0100    0.0100    0.0100    0.0100    0.0100    0.0100    0.0100
0.0100    0.0100    0.0100    0.0100    0.0100    0.0100    0.0100    0.0100
0.0100    0.0100    0.0100    0.0100    0.0100    0.0100    0.0100    0.0100
0.0100    0.0100    0.0100    0.0100    0.0100    0.0100    0.0100    0.0100
0.0100    0.0100    0.0100    0.0100    0.0100    0.0100    0.0100    0.0100
0.0100    0.0100    0.0100    0.0100    0.0100    0.0100    0.0100    0.0100
0.0100    0.0100    0.0100    0.0100    0.0100    0.0100    0.0100    0.0100
0.0100    0.0100    0.0100    0.0100    0.0100    0.0100    0.0100    0.0100
</PP_RAB>
</PP_MESH>
<PP_LOCAL type="real"  size="600" columns="4">
-3.9607947921E+01   -3.9611147623E+01   -3.9618691995E+01   -3.9627423629E+01
-3.9632864574E+01   -3.9630661137E+01   -3.9617437140E+01   -3.9591142523E+01
-3.9550984216E+01   -3.9497132676E+01   -3.9430375967E+01   -3.9351821775E+01
-3.9262683052E+01   -3.9164144384E+01   -3.9057290570E+01   -3.8943076809E+01
-3.8822323627E+01   -3.8695724674E+01   -3.8563859889E+01   -3.8427209736E+01
-3.8286168311E+01   -3.8141054378E+01   -3.7992120126E+01   -3.7839557809E+01
-3.7683504603E+01   -3.7524046117E+01   -3.7361219023E+01   -3.7195013292E+01
-3.7025374548E+01   -3.6852207024E+01   -3.6675377587E+01   -3.6494721201E+01
-3.6310048109E+01   -3.6121152774E+01   -3.5927824460E+01   -3.5729859025E+01
-3.5527071306E+01   -3.5319307274E+01   -3.5106455034E+01   -3.4888453789E+01
-3.4665300037E+01   -3.4437050502E+01   -3.4203821676E+01   -3.3965786154E+01
-3.3723166265E+01   -3.3476225737E+01   -3.3225260220E+01   -3.2970587495E+01
-3.2712538118E+01   -3.2451447047E+01   -3.2187646641E+01   -3.1921461184E+01
-3.1653202971E+01   -3.1383169816E+01   -3.1111643786E+01   -3.0838890930E+01
-3.0565161732E+01   -3.0290692071E+01   -3.0015704474E+01   -2.9740409509E+01
-2.9465007176E+01   -2.9189688225E+01   -2.8914635335E+01   -2.8640024110E+01
-2.8366023908E+01   -2.8092798472E+01   -2.7820506388E+01   -2.7549301390E+01
-2.7279332520E+01   -2.7010744164E+01   -2.6743675993E+01   -2.6478262816E+01
-2.6214634367E+01   -2.5952915045E+01   -2.5693223609E+01   -2.5435672862E+01
-2.5180369309E+01   -2.4927412819E+01   -2.4676896299E+01   -2.4428905383E+01
-2.4183518148E+01   -2.3940804873E+01   -2.3700827845E+01   -2.3463641225E+01
-2.3229290984E+01   -2.2997814918E+01   -2.2769242750E+01   -2.2543596327E+01
-2.2320889911E+01   -2.2101130581E+01   -2.1884318718E+01   -2.1670448594E+01
-2.1459509029E+01   -2.1251484126E+01   -2.1046354036E+01   -2.0844095757E+01
-2.0644683926E+01   -2.0448091574E+01   -2.0254290828E+01   -2.0063253535E+01
-1.9874951764E+01   -1.9689358196E+01   -1.9506446367E+01   -1.9326190765E+01
-1.9148566776E+01   -1.8973550481E+01   -1.8801118318E+01   -1.8631246608E+01
-1.8463910995E+01   -1.8299085751E+01   -1.8136743184E+01   -1.7976852338E+01
-1.7819380459E+01   -1.7664295944E+01   -1.7511570756E+01   -1.7361179523E+01
-1.7213098059E+01   -1.7067301793E+01   -1.6923763786E+01   -1.6782458976E+01
-1.6643364217E+01   -1.6506454809E+01   -1.6371705431E+01   -1.6239089814E+01
-1.6108580390E+01   -1.5980148214E+01   -1.5853762830E+01   -1.5729392183E+01
-1.5607002569E+01   -1.5486558623E+01   -1.5368023328E+01   -1.5251358071E+01
-1.5136522721E+01   -1.5023475750E+01   -1.4912174387E+01   -1.4802574803E+01
-1.4694632336E+01   -1.4588301745E+01   -1.4483537491E+01   -1.4380294043E+01
-1.4278526204E+01   -1.4178189445E+01   -1.4079240253E+01   -1.3981636475E+01
-1.3885337664E+01   -1.3790305413E+01   -1.3696503692E+01   -1.3603899166E+01
-1.3512461514E+01   -1.3422163743E+01   -1.3332982513E+01   -1.3244898339E+01
-1.3157896118E+01   -1.3071964934E+01   -1.2987099524E+01   -1.2903299253E+01
-1.2820565542E+01   -1.2738897794E+01   -1.2658276068E+01   -1.2578666853E+01
-1.2500048942E+01   -1.2422408553E+01   -1.2345727552E+01   -1.2269987211E+01
-1.2195170404E+01   -1.2121260462E+01   -1.2048240955E+01   -1.1976095855E+01
-1.1904809533E+01   -1.1834366726E+01   -1.1764752533E+01   -1.1695952402E+01
-1.1627952121E+01   -1.1560737811E+01   -1.1494295914E+01   -1.1428613186E+01
-1.1363676686E+01   -1.1299473770E+01   -1.1235992083E+01   -1.1173219547E+01
-1.1111144358E+01   -1.1049754974E+01   -1.0989040108E+01   -1.0928988724E+01
-1.0869590026E+01   -1.0810833450E+01   -1.0752708662E+01   -1.0695205545E+01
-1.0638314200E+01   -1.0582024932E+01   -1.0526328251E+01   -1.0471214863E+01
-1.0416675663E+01   -1.0362701735E+01   -1.0309284345E+01   -1.0256414933E+01
-1.0204085113E+01   -1.0152286669E+01   -1.0101011548E+01   -1.0050251856E+01
-9.9999998595E+00   -9.9502479743E+00   -9.9009887676E+00   -9.8522149525E+00
-9.8039193844E+00   -9.7560950582E+00   -9.7087351046E+00   -9.6618327876E+00
-9.6153815007E+00   -9.5693747641E+00   -9.5238062220E+00   -9.4786696392E+00
-9.4339588988E+00   -9.3896679988E+00   -9.3457910502E+00   -9.3023222736E+00
-9.2592559972E+00   -9.2165866540E+00   -9.1743087794E+00   -9.1324170089E+00
-9.0909060760E+00   -9.0497708094E+00   -9.0090061315E+00   -8.9686070559E+00
-8.9285686852E+00   -8.8888862095E+00   -8.8495549040E+00   -8.8105701273E+00
-8.7719273195E+00   -8.7336220004E+00   -8.6956497679E+00   -8.6580062960E+00
-8.6206873336E+00   -8.5836887024E+00   -8.5470062956E+00   -8.5106360764E+00
-8.4745740764E+00   -8.4388163942E+00   -8.4033591938E+00   -8.3681987038E+00
-8.3333312154E+00   -8.2987530814E+00   -8.2644607148E+00   -8.2304505878E+00
-8.1967192303E+00   -8.1632632291E+00   -8.1300792261E+00   -8.0971639180E+00
-8.0645140544E+00   -8.0321264373E+00   -7.9999979200E+00   -7.9681254056E+00
-7.9365058466E+00   -7.9051362436E+00   -7.8740136445E+00   -7.8431351435E+00
-7.8124978799E+00   -7.7820990381E+00   -7.7519358455E+00   -7.7220055728E+00
-7.6923055325E+00   -7.6628330783E+00   -7.6335856042E+00   -7.6045605440E+00
-7.5757553704E+00   -7.5471675940E+00   -7.5187947630E+00   -7.4906344624E+00
-7.4626843131E+00   -7.4349419715E+00   -7.4074051285E+00   -7.3800715093E+00
-7.3529388725E+00   -7.3260050096E+00   -7.2992677441E+00   -7.2727249313E+00
-7.2463744577E+00   -7.2202142402E+00   -7.1942422257E+00   -7.1684563905E+00
-7.1428547398E+00   -7.1174353072E+00   -7.0921961543E+00   -7.0671353699E+00
-7.0422510700E+00   -7.0175413967E+00   -6.9930045183E+00   -6.9686386286E+00
-6.9444419466E+00   -6.9204127156E+00   -6.8965492035E+00   -6.8728497017E+00
-6.8493125254E+00   -6.8259360124E+00   -6.8027185233E+00   -6.7796584409E+00
-6.7567541699E+00   -6.7340041365E+00   -6.7114067878E+00   -6.6889605921E+00
-6.6666640376E+00   -6.6445156330E+00   -6.6225139067E+00   -6.6006574062E+00
-6.5789446986E+00   -6.5573743694E+00   -6.5359450228E+00   -6.5146552811E+00
-6.4935037844E+00   -6.4724891907E+00   -6.4516101751E+00   -6.4308654297E+00
-6.4102536634E+00   -6.3897736018E+00   -6.3694239864E+00   -6.3492035750E+00
-6.3291111410E+00   -6.3091454731E+00   -6.2893053755E+00   -6.2695896673E+00
-6.2499971823E+00   -6.2305267689E+00   -6.2111772899E+00   -6.1919476219E+00
-6.1728366556E+00   -6.1538432953E+00   -6.1349664588E+00   -6.1162050770E+00
-6.0975580940E+00   -6.0790244665E+00   -6.0606031642E+00   -6.0422931689E+00
-6.0240934749E+00   -6.0060030884E+00   -5.9880210277E+00   -5.9701463227E+00
-5.9523780149E+00   -5.9347151570E+00   -5.9171568133E+00   -5.8997020587E+00
-5.8823499792E+00   -5.8650996716E+00   -5.8479502431E+00   -5.8309008115E+00
-5.8139505045E+00   -5.7970984604E+00   -5.7803438271E+00   -5.7636857624E+00
-5.7471234339E+00   -5.7306560186E+00   -5.7142827030E+00   -5.6980026828E+00
-5.6818151629E+00   -5.6657193572E+00   -5.6497144884E+00   -5.6337997880E+00
-5.6179744963E+00   -5.6022378619E+00   -5.5865891419E+00   -5.5710276015E+00
-5.5555525144E+00   -5.5401631620E+00   -5.5248588339E+00   -5.5096388274E+00
-5.4945024475E+00   -5.4794490070E+00   -5.4644778259E+00   -5.4495882318E+00
-5.4347795597E+00   -5.4200511516E+00   -5.4054023568E+00   -5.3908325315E+00
-5.3763410389E+00   -5.3619272488E+00   -5.3475905382E+00   -5.3333302902E+00
-5.3191458949E+00   -5.3050367486E+00   -5.2910022542E+00   -5.2770418206E+00
-5.2631548634E+00   -5.2493408038E+00   -5.2355990694E+00   -5.2219290936E+00
-5.2083303160E+00   -5.1948021816E+00   -5.1813441415E+00   -5.1679556522E+00
-5.1546361761E+00   -5.1413851808E+00   -5.1282021397E+00   -5.1150865312E+00
-5.1020378394E+00   -5.0890555535E+00   -5.0761391678E+00   -5.0632881817E+00
-5.0505020999E+00   -5.0377804320E+00   -5.0251226923E+00   -5.0125284002E+00
-4.9999970798E+00   -4.9875282601E+00   -4.9751214745E+00   -4.9627762614E+00
-4.9504921634E+00   -4.9382687279E+00   -4.9261055067E+00   -4.9140020559E+00
-4.9019579360E+00   -4.8899727118E+00   -4.8780459524E+00   -4.8661772311E+00
-4.8543661251E+00   -4.8426122160E+00   -4.8309150894E+00   -4.8192743347E+00
-4.8076895454E+00   -4.7961603189E+00   -4.7846862565E+00   -4.7732669630E+00
-4.7619020474E+00   -4.7505911221E+00   -4.7393338034E+00   -4.7281297110E+00
-4.7169784682E+00   -4.7058797022E+00   -4.6948330432E+00   -4.6838381253E+00
-4.6728945857E+00   -4.6620020652E+00   -4.6511602077E+00   -4.6403686607E+00
-4.6296270747E+00   -4.6189351037E+00   -4.6082924046E+00   -4.5976986376E+00
-4.5871534661E+00   -4.5766565564E+00   -4.5662075780E+00   -4.5558062033E+00
-4.5454521078E+00   -4.5351449698E+00   -4.5248844705E+00   -4.5146702943E+00
-4.5045021279E+00   -4.4943796614E+00   -4.4843025872E+00   -4.4742706007E+00
-4.4642834000E+00   -4.4543406859E+00   -4.4444421617E+00   -4.4345875336E+00
-4.4247765101E+00   -4.4150088025E+00   -4.4052841246E+00   -4.3956021926E+00
-4.3859627253E+00   -4.3763654440E+00   -4.3668100723E+00   -4.3572963363E+00
-4.3478239644E+00   -4.3383926876E+00   -4.3290022388E+00   -4.3196523536E+00
-4.3103427697E+00   -4.3010732270E+00   -4.2918434679E+00   -4.2826532367E+00
-4.2735022801E+00   -4.2643903468E+00   -4.2553171877E+00   -4.2462825558E+00
-4.2372862064E+00   -4.2283278965E+00   -4.2194073854E+00   -4.2105244344E+00
-4.2016788067E+00   -4.1928702676E+00   -4.1840985844E+00   -4.1753635261E+00
-4.1666648639E+00   -4.1580023709E+00   -4.1493758217E+00   -4.1407849933E+00
-4.1322296641E+00   -4.1237096146E+00   -4.1152246271E+00   -4.1067744855E+00
-4.0983589756E+00   -4.0899778849E+00   -4.0816310028E+00   -4.0733181201E+00
-4.0650390296E+00   -4.0567935256E+00   -4.0485814042E+00   -4.0404024631E+00
-4.0322565015E+00   -4.0241433204E+00   -4.0160627223E+00   -4.0080145113E+00
-3.9999984931E+00   -3.9920144749E+00   -3.9840622655E+00   -3.9761416752E+00
-3.9682525157E+00   -3.9603946003E+00   -3.9525677439E+00   -3.9447717625E+00
-3.9370064739E+00   -3.9292716971E+00   -3.9215672528E+00   -3.9138929627E+00
-3.9062486502E+00   -3.8986341401E+00   -3.8910492583E+00   -3.8834938322E+00
-3.8759676907E+00   -3.8684706638E+00   -3.8610025828E+00   -3.8535632804E+00
-3.8461525906E+00   -3.8387703487E+00   -3.8314163912E+00   -3.8240905557E+00
-3.8167926814E+00   -3.8095226084E+00   -3.8022801781E+00   -3.7950652332E+00
-3.7878776176E+00   -3.7807171762E+00   -3.7735837552E+00   -3.7664772020E+00
-3.7593973650E+00   -3.7523440939E+00   -3.7453172395E+00   -3.7383166535E+00
-3.7313421891E+00   -3.7243937001E+00   -3.7174710419E+00   -3.7105740706E+00
-3.7037026435E+00   -3.6968566190E+00   -3.6900358564E+00   -3.6832402163E+00
-3.6764695599E+00   -3.6697237500E+00   -3.6630026498E+00   -3.6563061239E+00
-3.6496340377E+00   -3.6429862578E+00   -3.6363626515E+00   -3.6297630872E+00
-3.6231874342E+00   -3.6166355629E+00   -3.6101073444E+00   -3.6036026509E+00
-3.5971213554E+00   -3.5906633320E+00   -3.5842284555E+00   -3.5778166017E+00
-3.5714276472E+00   -3.5650614697E+00   -3.5587179474E+00   -3.5523969598E+00
-3.5460983869E+00   -3.5398221097E+00   -3.5335680100E+00   -3.5273359706E+00
-3.5211258748E+00   -3.5149376070E+00   -3.5087710523E+00   -3.5026260966E+00
-3.4965026267E+00   -3.4904005301E+00   -3.4843196949E+00   -3.4782600104E+00
-3.4722213664E+00   -3.4662036534E+00   -3.4602067628E+00   -3.4542305868E+00
-3.4482750182E+00   -3.4423399505E+00   -3.4364252782E+00   -3.4305308963E+00
-3.4246567004E+00   -3.4188025872E+00   -3.4129684538E+00   -3.4071541981E+00
-3.4013597187E+00   -3.3955849148E+00   -3.3898296864E+00   -3.3840939341E+00
-3.3783775593E+00   -3.3726804639E+00   -3.3670025506E+00   -3.3613437226E+00
-3.3557038838E+00   -3.3500829389E+00   -3.3444807931E+00   -3.3388973521E+00
</PP_LOCAL>
<PP_NONLOCAL>
<PP_BETA.1
type="real"
size="600"
columns="4"
index="1"
angular_momentum="0"
cutoff_radius_index=" 160"
cutoff_radius="    1.5900000000E+00" >
-2.1745313106E-08    1.2341231335E-01    2.4592865210E-01    3.6666571117E-01
4.8476526664E-01    5.9940607751E-01    7.0981503675E-01    8.1527734774E-01
9.1514552395E-01    1.0088470357E+00    1.0958904587E+00    1.1758700106E+00
1.2484684018E+00    1.3134579574E+00    1.3707000141E+00    1.4201426264E+00
1.4618166586E+00    1.4958303735E+00    1.5223626611E+00    1.5416550808E+00
1.5540029171E+00    1.5597454685E+00    1.5592558068E+00    1.5529302535E+00
1.5411778261E+00    1.5244099043E+00    1.5030303626E+00    1.4774263990E+00
1.4479602772E+00    1.4149621709E+00    1.3787242764E+00    1.3394963272E+00
1.2974826076E+00    1.2528405291E+00    1.2056807936E+00    1.1560691274E+00
1.1040295335E+00    1.0495489705E+00    9.9258333112E-01    9.3306456111E-01
8.7090872997E-01    8.0602483941E-01    7.3832413636E-01    6.6772968241E-01
5.9418592261E-01    5.1766799421E-01    4.3819051874E-01    3.5581563073E-01
2.7066001137E-01    1.8290071666E-01    9.2779615453E-02    6.0628386881E-04
-9.3240763002E-02   -1.8831458309E-01   -2.8410210390E-01   -3.8002820271E-01
-4.7546152736E-01   -5.6972197285E-01   -6.6208968868E-01   -7.5181545381E-01
-8.3813222159E-01   -9.2026760621E-01   -9.9745705663E-01   -1.0689574433E+00
-1.1340607687E+00   -1.1921077050E+00   -1.2425006598E+00   -1.2847160777E+00
-1.3183156948E+00   -1.3429564856E+00   -1.3583990609E+00   -1.3645143107E+00
-1.3612881173E+00   -1.3488240056E+00   -1.3273436374E+00   -1.2971851064E+00
-1.2587990318E+00   -1.2127425003E+00   -1.1596709500E+00   -1.1003281362E+00
-1.0355343610E+00   -9.6617318815E-01   -8.9317689660E-01   -8.1751095976E-01
-7.4015785551E-01   -6.6210053221E-01   -5.8430586413E-01   -5.0770843227E-01
-4.3319496205E-01   -3.6158973679E-01   -2.9364128708E-01   -2.3001063018E-01
-1.7126130151E-01   -1.1785138311E-01   -7.0127691628E-02   -2.8322242582E-02
7.4489411105E-03    3.7184658615E-02    6.0995032299E-02    7.9095764674E-02
9.1800283496E-02    9.9509955304E-02    1.0270258895E-01    1.0191948922E-01
9.7751352972E-02    9.0823326820E-02    8.1779563618E-02    7.1267631148E-02
5.9923114140E-02    4.8354818734E-02    3.7130614189E-02    2.6765556204E-02
1.7707303431E-02    1.0322720661E-02    4.8357491442E-03    1.5836484729E-03
3.5253253580E-04    3.0327603506E-05   -2.8644712293E-06    8.3495092778E-07
8.9939936643E-07   -9.0776659830E-07    0.0000000000E+00    0.0000000000E+00
0.0000000000E+00    0.0000000000E+00    0.0000000000E+00    0.0000000000E+00
0.0000000000E+00    0.0000000000E+00    0.0000000000E+00    0.0000000000E+00
0.0000000000E+00    0.0000000000E+00    0.0000000000E+00    0.0000000000E+00
0.0000000000E+00    0.0000000000E+00    0.0000000000E+00    0.0000000000E+00
0.0000000000E+00    0.0000000000E+00    0.0000000000E+00    0.0000000000E+00
0.0000000000E+00    0.0000000000E+00    0.0000000000E+00    0.0000000000E+00
0.0000000000E+00    0.0000000000E+00    0.0000000000E+00    0.0000000000E+00
0.0000000000E+00    0.0000000000E+00    0.0000000000E+00    0.0000000000E+00
0.0000000000E+00    0.0000000000E+00    0.0000000000E+00    0.0000000000E+00
0. 0. 0. 0.
0. 0. 0. 0.
0. 0. 0. 0.
0. 0. 0. 0.
0. 0. 0. 0.
0. 0. 0. 0.
0. 0. 0. 0.
0. 0. 0. 0.
0. 0. 0. 0.
0. 0. 0. 0.
0. 0. 0. 0.
0. 0. 0. 0.
0. 0. 0. 0.
0. 0. 0. 0.
0. 0. 0. 0.
0. 0. 0. 0.
0. 0. 0. 0.
0. 0. 0. 0.
0. 0. 0. 0.
0. 0. 0. 0.
0. 0. 0. 0.
0. 0. 0. 0.
0. 0. 0. 0.
0. 0. 0. 0.
0. 0. 0. 0.
0. 0. 0. 0.
0. 0. 0. 0.
0. 0. 0. 0.
0. 0. 0. 0.
0. 0. 0. 0.
0. 0. 0. 0.
0. 0. 0. 0.
0. 0. 0. 0.
0. 0. 0. 0.
0. 0. 0. 0.
0. 0. 0. 0.
0. 0. 0. 0.
0. 0. 0. 0.
0. 0. 0. 0.
0. 0. 0. 0.
0. 0. 0. 0.
0. 0. 0. 0.
0. 0. 0. 0.
0. 0. 0. 0.
0. 0. 0. 0.
0. 0. 0. 0.
0. 0. 0. 0.
0. 0. 0. 0.
0. 0. 0. 0.
0. 0. 0. 0.
0. 0. 0. 0.
0. 0. 0. 0.
0. 0. 0. 0.
0. 0. 0. 0.
0. 0. 0. 0.
0. 0. 0. 0.
0. 0. 0. 0.
0. 0. 0. 0.
0. 0. 0. 0.
0. 0. 0. 0.
0. 0. 0. 0.
0. 0. 0. 0.
0. 0. 0. 0.
0. 0. 0. 0.
0. 0. 0. 0.
0. 0. 0. 0.
0. 0. 0. 0.
0. 0. 0. 0.
0. 0. 0. 0.
0. 0. 0. 0.
0. 0. 0. 0.
0. 0. 0. 0.
0. 0. 0. 0.
0. 0. 0. 0.
0. 0. 0. 0.
0. 0. 0. 0.
0. 0. 0. 0.
0. 0. 0. 0.
0. 0. 0. 0.
0. 0. 0. 0.
0. 0. 0. 0.
0. 0. 0. 0.
0. 0. 0. 0.
0. 0. 0. 0.
0. 0. 0. 0.
0. 0. 0. 0.
0. 0. 0. 0.
0. 0. 0. 0.
0. 0. 0. 0.
0. 0. 0. 0.
0. 0. 0. 0.
0. 0. 0. 0.
0. 0. 0. 0.
0. 0. 0. 0.
0. 0. 0. 0.
0. 0. 0. 0.
0. 0. 0. 0.
0. 0. 0. 0.
0. 0. 0. 0.