<UPF version="2.0.1">
<PP_INFO>
NOTE!!!!
This file is trimmed with a mesh size of 600 from the original version.
Trimming performed at 2023-03-31 09:10:05.087273 by trim_upf.py version 0.1.0

This pseudopotential file has been produced using the code
ONCVPSP  (Optimized Norm-Conservinng Vanderbilt PSeudopotential)
scalar-relativistic version 3.3.0 08/16/2017 by D. R. Hamann
The code is available through a link at URL www.mat-simresearch.com.
Documentation with the package provides a full discription of the
input data below.
While it is not required under the terms of the GNU GPL, it is
suggested that you cite D. R. Hamann, Phys. Rev. B 88, 085117 (2013)
in any publication using these pseudopotentials.
<PP_INPUTFILE>
# ATOM AND REFERENCE CONFIGURATION
# atsym  z   nc   nv     iexc    psfile
Mn 25.00    3    4       4      upf
#
#   n    l    f        energy (Ha)
1    0    2.00
2    0    2.00
2    1    6.00
3    0    2.00
3    1    6.00
3    2    5.00
4    0    2.00
#
# PSEUDOPOTENTIAL AND OPTIMIZATION
# lmax
2
#
#   l,   rc,      ep,       ncon, nbas, qcut
0   1.40000  -3.15601    4    7   8.20000
1   1.20000  -2.00626    4    7  10.40000
2   1.60000  -0.24883    4    7   9.80000
#
# LOCAL POTENTIAL
# lloc, lpopt,  rc(5),   dvloc0
4    5   1.20000      0.00000
#
# VANDERBILT-KLEINMAN-BYLANDER PROJECTORs
# l, nproj, debl
0    2   2.96832
1    2   1.95591
2    2   1.00000
#
# MODEL CORE CHARGE
# icmod, fcfact, rcfact
3   4.00000   1.75000
#
# LOG DERIVATIVE ANALYSIS
# epsh1, epsh2, depsh
-50.00   12.00    0.02
#
# OUTPUT GRID
# rlmax, drl
6.00    0.01
#
# TEST CONFIGURATIONS
# ncnf
0
# nvcnf
#   n    l    f
</PP_INPUTFILE>
</PP_INFO>
<!--                               -->
<!-- END OF HUMAN READABLE SECTION -->
<!--                               -->
<PP_HEADER
generated="Generated using ONCVPSP code by D. R. Hamann"
author="anonymous"
date="171031"
comment=""
element="Mn"
pseudo_type="NC"
relativistic="scalar"
is_ultrasoft="F"
is_paw="F"
is_coulomb="F"
has_so="F"
has_wfc="F"
has_gipaw="F"
core_correction="T"
functional="PBE"
z_valence="   15.00"
total_psenergy="  -2.07106133149E+02"
rho_cutoff="   1.46300000000E+01"
l_max="2"
l_local="-1"
mesh_size="   600"
number_of_wfc="4"
number_of_proj="6"/>
<PP_MESH>
<PP_R type="real"  size="600" columns="8">
0.0000    0.0100    0.0200    0.0300    0.0400    0.0500    0.0600    0.0700
0.0800    0.0900    0.1000    0.1100    0.1200    0.1300    0.1400    0.1500
0.1600    0.1700    0.1800    0.1900    0.2000    0.2100    0.2200    0.2300
0.2400    0.2500    0.2600    0.2700    0.2800    0.2900    0.3000    0.3100
0.3200    0.3300    0.3400    0.3500    0.3600    0.3700    0.3800    0.3900
0.4000    0.4100    0.4200    0.4300    0.4400    0.4500    0.4600    0.4700
0.4800    0.4900    0.5000    0.5100    0.5200    0.5300    0.5400    0.5500
0.5600    0.5700    0.5800    0.5900    0.6000    0.6100    0.6200    0.6300
0.6400    0.6500    0.6600    0.6700    0.6800    0.6900    0.7000    0.7100
0.7200    0.7300    0.7400    0.7500    0.7600    0.7700    0.7800    0.7900
0.8000    0.8100    0.8200    0.8300    0.8400    0.8500    0.8600    0.8700
0.8800    0.8900    0.9000    0.9100    0.9200    0.9300    0.9400    0.9500
0.9600    0.9700    0.9800    0.9900    1.0000    1.0100    1.0200    1.0300
1.0400    1.0500    1.0600    1.0700    1.0800    1.0900    1.1000    1.1100
1.1200    1.1300    1.1400    1.1500    1.1600    1.1700    1.1800    1.1900
1.2000    1.2100    1.2200    1.2300    1.2400    1.2500    1.2600    1.2700
1.2800    1.2900    1.3000    1.3100    1.3200    1.3300    1.3400    1.3500
1.3600    1.3700    1.3800    1.3900    1.4000    1.4100    1.4200    1.4300
1.4400    1.4500    1.4600    1.4700    1.4800    1.4900    1.5000    1.5100
1.5200    1.5300    1.5400    1.5500    1.5600    1.5700    1.5800    1.5900
1.6000    1.6100    1.6200    1.6300    1.6400    1.6500    1.6600    1.6700
1.6800    1.6900    1.7000    1.7100    1.7200    1.7300    1.7400    1.7500
1.7600    1.7700    1.7800    1.7900    1.8000    1.8100    1.8200    1.8300
1.8400    1.8500    1.8600    1.8700    1.8800    1.8900    1.9000    1.9100
1.9200    1.9300    1.9400    1.9500    1.9600    1.9700    1.9800    1.9900
2.0000    2.0100    2.0200    2.0300    2.0400    2.0500    2.0600    2.0700
2.0800    2.0900    2.1000    2.1100    2.1200    2.1300    2.1400    2.1500
2.1600    2.1700    2.1800    2.1900    2.2000    2.2100    2.2200    2.2300
2.2400    2.2500    2.2600    2.2700    2.2800    2.2900    2.3000    2.3100
2.3200    2.3300    2.3400    2.3500    2.3600    2.3700    2.3800    2.3900
2.4000    2.4100    2.4200    2.4300    2.4400    2.4500    2.4600    2.4700
2.4800    2.4900    2.5000    2.5100    2.5200    2.5300    2.5400    2.5500
2.5600    2.5700    2.5800    2.5900    2.6000    2.6100    2.6200    2.6300
2.6400    2.6500    2.6600    2.6700    2.6800    2.6900    2.7000    2.7100
2.7200    2.7300    2.7400    2.7500    2.7600    2.7700    2.7800    2.7900
2.8000    2.8100    2.8200    2.8300    2.8400    2.8500    2.8600    2.8700
2.8800    2.8900    2.9000    2.9100    2.9200    2.9300    2.9400    2.9500
2.9600    2.9700    2.9800    2.9900    3.0000    3.0100    3.0200    3.0300
3.0400    3.0500    3.0600    3.0700    3.0800    3.0900    3.1000    3.1100
3.1200    3.1300    3.1400    3.1500    3.1600    3.1700    3.1800    3.1900
3.2000    3.2100    3.2200    3.2300    3.2400    3.2500    3.2600    3.2700
3.2800    3.2900    3.3000    3.3100    3.3200    3.3300    3.3400    3.3500
3.3600    3.3700    3.3800    3.3900    3.4000    3.4100    3.4200    3.4300
3.4400    3.4500    3.4600    3.4700    3.4800    3.4900    3.5000    3.5100
3.5200    3.5300    3.5400    3.5500    3.5600    3.5700    3.5800    3.5900
3.6000    3.6100    3.6200    3.6300    3.6400    3.6500    3.6600    3.6700
3.6800    3.6900    3.7000    3.7100    3.7200    3.7300    3.7400    3.7500
3.7600    3.7700    3.7800    3.7900    3.8000    3.8100    3.8200    3.8300
3.8400    3.8500    3.8600    3.8700    3.8800    3.8900    3.9000    3.9100
3.9200    3.9300    3.9400    3.9500    3.9600    3.9700    3.9800    3.9900
4.0000    4.0100    4.0200    4.0300    4.0400    4.0500    4.0600    4.0700
4.0800    4.0900    4.1000    4.1100    4.1200    4.1300    4.1400    4.1500
4.1600    4.1700    4.1800    4.1900    4.2000    4.2100    4.2200    4.2300
4.2400    4.2500    4.2600    4.2700    4.2800    4.2900    4.3000    4.3100
4.3200    4.3300    4.3400    4.3500    4.3600    4.3700    4.3800    4.3900
4.4000    4.4100    4.4200    4.4300    4.4400    4.4500    4.4600    4.4700
4.4800    4.4900    4.5000    4.5100    4.5200    4.5300    4.5400    4.5500
4.5600    4.5700    4.5800    4.5900    4.6000    4.6100    4.6200    4.6300
4.6400    4.6500    4.6600    4.6700    4.6800    4.6900    4.7000    4.7100
4.7200    4.7300    4.7400    4.7500    4.7600    4.7700    4.7800    4.7900
4.8000    4.8100    4.8200    4.8300    4.8400    4.8500    4.8600    4.8700
4.8800    4.8900    4.9000    4.9100    4.9200    4.9300    4.9400    4.9500
4.9600    4.9700    4.9800    4.9900    5.0000    5.0100    5.0200    5.0300
5.0400    5.0500    5.0600    5.0700    5.0800    5.0900    5.1000    5.1100
5.1200    5.1300    5.1400    5.1500    5.1600    5.1700    5.1800    5.1900
5.2000    5.2100    5.2200    5.2300    5.2400    5.2500    5.2600    5.2700
5.2800    5.2900    5.3000    5.3100    5.3200    5.3300    5.3400    5.3500
5.3600    5.3700    5.3800    5.3900    5.4000    5.4100    5.4200    5.4300
5.4400    5.4500    5.4600    5.4700    5.4800    5.4900    5.5000    5.5100
5.5200    5.5300    5.5400    5.5500    5.5600    5.5700    5.5800    5.5900
5.6000    5.6100    5.6200    5.6300    5.6400    5.6500    5.6600    5.6700
5.6800    5.6900    5.7000    5.7100    5.7200    5.7300    5.7400    5.7500
5.7600    5.7700    5.7800    5.7900    5.8000    5.8100    5.8200    5.8300
5.8400    5.8500    5.8600    5.8700    5.8800    5.8900    5.9000    5.9100
5.9200    5.9300    5.9400    5.9500    5.9600    5.9700    5.9800    5.9900
</PP_R>
<PP_RAB type="real"  size="600" columns="8">
0.0100    0.0100    0.0100    0.0100    0.0100    0.0100    0.0100    0.0100
0.0100    0.0100    0.0100    0.0100    0.0100    0.0100    0.0100    0.0100
0.0100    0.0100    0.0100    0.0100    0.0100    0.0100    0.0100    0.0100
0.0100    0.0100    0.0100    0.0100    0.0100    0.0100    0.0100    0.0100
0.0100    0.0100    0.0100    0.0100    0.0100    0.0100    0.0100    0.0100
0.0100    0.0100    0.0100    0.0100    0.0100    0.0100    0.0100    0.0100
0.0100    0.0100    0.0100    0.0100    0.0100    0.0100    0.0100    0.0100
0.0100    0.0100    0.0100    0.0100    0.0100    0.0100    0.0100    0.0100
0.0100    0.0100    0.0100    0.0100    0.0100    0.0100    0.0100    0.0100
0.0100    0.0100    0.0100    0.0100    0.0100    0.0100    0.0100    0.0100
0.0100    0.0100    0.0100    0.0100    0.0100    0.0100    0.0100    0.0100
0.0100    0.0100    0.0100    0.0100    0.0100    0.0100    0.0100    0.0100
0.0100    0.0100    0.0100    0.0100    0.0100    0.0100    0.0100    0.0100
0.0100    0.0100    0.0100    0.0100    0.0100    0.0100    0.0100    0.0100
0.0100    0.0100    0.0100    0.0100    0.0100    0.0100    0.0100    0.0100
0.0100    0.0100    0.0100    0.0100    0.0100    0.0100    0.0100    0.0100
0.0100    0.0100    0.0100    0.0100    0.0100    0.0100    0.0100    0.0100
0.0100    0.0100    0.0100    0.0100    0.0100    0.0100    0.0100    0.0100
0.0100    0.0100    0.0100    0.0100    0.0100    0.0100    0.0100    0.0100
0.0100    0.0100    0.0100    0.0100    0.0100    0.0100    0.0100    0.0100
0.0100    0.0100    0.0100    0.0100    0.0100    0.0100    0.0100    0.0100
0.0100    0.0100    0.0100    0.0100    0.0100    0.0100    0.0100    0.0100
0.0100    0.0100    0.0100    0.0100    0.0100    0.0100    0.0100    0.0100
0.0100    0.0100    0.0100    0.0100    0.0100    0.0100    0.0100    0.0100
0.0100    0.0100    0.0100    0.0100    0.0100    0.0100    0.0100    0.0100
0.0100    0.0100    0.0100    0.0100    0.0100    0.0100    0.0100    0.0100
0.0100    0.0100    0.0100    0.0100    0.0100    0.0100    0.0100    0.0100
0.0100    0.0100    0.0100    0.0100    0.0100    0.0100    0.0100    0.0100
0.0100    0.0100    0.0100    0.0100    0.0100    0.0100    0.0100    0.0100
0.0100    0.0100    0.0100    0.0100    0.0100    0.0100    0.0100    0.0100
0.0100    0.0100    0.0100    0.0100    0.0100    0.0100    0.0100    0.0100
0.0100    0.0100    0.0100    0.0100    0.0100    0.0100    0.0100    0.0100
0.0100    0.0100    0.0100    0.0100    0.0100    0.0100    0.0100    0.0100
0.0100    0.0100    0.0100    0.0100    0.0100    0.0100    0.0100    0.0100
0.0100    0.0100    0.0100    0.0100    0.0100    0.0100    0.0100    0.0100
0.0100    0.0100    0.0100    0.0100    0.0100    0.0100    0.0100    0.0100
0.0100    0.0100    0.0100    0.0100    0.0100    0.0100    0.0100    0.0100
0.0100    0.0100    0.0100    0.0100    0.0100    0.0100    0.0100    0.0100
0.0100    0.0100    0.0100    0.0100    0.0100    0.0100    0.0100    0.0100
0.0100    0.0100    0.0100    0.0100    0.0100    0.0100    0.0100    0.0100
0.0100    0.0100    0.0100    0.0100    0.0100    0.0100    0.0100    0.0100
0.0100    0.0100    0.0100    0.0100    0.0100    0.0100    0.0100    0.0100
0.0100    0.0100    0.0100    0.0100    0.0100    0.0100    0.0100    0.0100
0.0100    0.0100    0.0100    0.0100    0.0100    0.0100    0.0100    0.0100
0.0100    0.0100    0.0100    0.0100    0.0100    0.0100    0.0100    0.0100
0.0100    0.0100    0.0100    0.0100    0.0100    0.0100    0.0100    0.0100
0.0100    0.0100    0.0100    0.0100    0.0100    0.0100    0.0100    0.0100
0.0100    0.0100    0.0100    0.0100    0.0100    0.0100    0.0100    0.0100
0.0100    0.0100    0.0100    0.0100    0.0100    0.0100    0.0100    0.0100
0.0100    0.0100    0.0100    0.0100    0.0100    0.0100    0.0100    0.0100
0.0100    0.0100    0.0100    0.0100    0.0100    0.0100    0.0100    0.0100
0.0100    0.0100    0.0100    0.0100    0.0100    0.0100    0.0100    0.0100
0.0100    0.0100    0.0100    0.0100    0.0100    0.0100    0.0100    0.0100
0.0100    0.0100    0.0100    0.0100    0.0100    0.0100    0.0100    0.0100
0.0100    0.0100    0.0100    0.0100    0.0100    0.0100    0.0100    0.0100
0.0100    0.0100    0.0100    0.0100    0.0100    0.0100    0.0100    0.0100
0.0100    0.0100    0.0100    0.0100    0.0100    0.0100    0.0100    0.0100
0.0100    0.0100    0.0100    0.0100    0.0100    0.0100    0.0100    0.0100
0.0100    0.0100    0.0100    0.0100    0.0100    0.0100    0.0100    0.0100
0.0100    0.0100    0.0100    0.0100    0.0100    0.0100    0.0100    0.0100
0.0100    0.0100    0.0100    0.0100    0.0100    0.0100    0.0100    0.0100
0.0100    0.0100    0.0100    0.0100    0.0100    0.0100    0.0100    0.0100
0.0100    0.0100    0.0100    0.0100    0.0100    0.0100    0.0100    0.0100
0.0100    0.0100    0.0100    0.0100    0.0100    0.0100    0.0100    0.0100
0.0100    0.0100    0.0100    0.0100    0.0100    0.0100    0.0100    0.0100
0.0100    0.0100    0.0100    0.0100    0.0100    0.0100    0.0100    0.0100
0.0100    0.0100    0.0100    0.0100    0.0100    0.0100    0.0100    0.0100
0.0100    0.0100    0.0100    0.0100    0.0100    0.0100    0.0100    0.0100
0.0100    0.0100    0.0100    0.0100    0.0100    0.0100    0.0100    0.0100
0.0100    0.0100    0.0100    0.0100    0.0100    0.0100    0.0100    0.0100
0.0100    0.0100    0.0100    0.0100    0.0100    0.0100    0.0100    0.0100
0.0100    0.0100    0.0100    0.0100    0.0100    0.0100    0.0100    0.0100
0.0100    0.0100    0.0100    0.0100    0.0100    0.0100    0.0100    0.0100
0.0100    0.0100    0.0100    0.0100    0.0100    0.0100    0.0100    0.0100
0.0100    0.0100    0.0100    0.0100    0.0100    0.0100    0.0100    0.0100
</PP_RAB>
</PP_MESH>
<PP_LOCAL type="real"  size="600" columns="4">
-5.1289776531E+01   -5.1287405140E+01   -5.1280289950E+01   -5.1268428283E+01
-5.1251815626E+01   -5.1230445632E+01   -5.1204310089E+01   -5.1173398904E+01
-5.1137700070E+01   -5.1097199643E+01   -5.1051881733E+01   -5.1001728489E+01
-5.0946720120E+01   -5.0886834915E+01   -5.0822049296E+01   -5.0752337890E+01
-5.0677673632E+01   -5.0598027888E+01   -5.0513370619E+01   -5.0423670559E+01
-5.0328895442E+01   -5.0229012241E+01   -5.0123987449E+01   -5.0013787375E+01
-4.9898378475E+01   -4.9777727698E+01   -4.9651802859E+01   -4.9520573020E+01
-4.9384008895E+01   -4.9242083260E+01   -4.9094771368E+01   -4.8942051377E+01
-4.8783904768E+01   -4.8620316770E+01   -4.8451276770E+01   -4.8276778721E+01
-4.8096821535E+01   -4.7911409457E+01   -4.7720552426E+01   -4.7524266413E+01
-4.7322573729E+01   -4.7115503321E+01   -4.6903091025E+01   -4.6685379795E+01
-4.6462419903E+01   -4.6234269103E+01   -4.6000992755E+01   -4.5762663926E+01
-4.5519363442E+01   -4.5271179912E+01   -4.5018209713E+01   -4.4760556934E+01
-4.4498333293E+01   -4.4231658008E+01   -4.3960657640E+01   -4.3685465902E+01
-4.3406223428E+01   -4.3123077521E+01   -4.2836181865E+01   -4.2545696207E+01
-4.2251786023E+01   -4.1954622150E+01   -4.1654380401E+01   -4.1351241160E+01
-4.1045388965E+01   -4.0737012069E+01   -4.0426301997E+01   -4.0113453090E+01
-3.9798662048E+01   -3.9482127464E+01   -3.9164049364E+01   -3.8844628743E+01
-3.8524067114E+01   -3.8202566053E+01   -3.7880326768E+01   -3.7557549661E+01
-3.7234433921E+01   -3.6911177118E+01   -3.6587974821E+01   -3.6265020228E+01
-3.5942503814E+01   -3.5620613001E+01   -3.5299531838E+01   -3.4979440708E+01
-3.4660516041E+01   -3.4342930060E+01   -3.4026850525E+01   -3.3712440507E+01
-3.3399858166E+01   -3.3089256551E+01   -3.2780783407E+01   -3.2474580988E+01
-3.2170785894E+01   -3.1869528898E+01   -3.1570934798E+01   -3.1275122259E+01
-3.0982203675E+01   -3.0692285027E+01   -3.0405465745E+01   -3.0121838578E+01
-2.9841489467E+01   -2.9564497419E+01   -2.9290934387E+01   -2.9020865156E+01
-2.8754347230E+01   -2.8491430727E+01   -2.8232158284E+01   -2.7976564959E+01
-2.7724678153E+01   -2.7476517533E+01   -2.7232094965E+01   -2.6991414454E+01
-2.6754472098E+01   -2.6521256048E+01   -2.6291746471E+01   -2.6065915526E+01
-2.5843727325E+01   -2.5625138002E+01   -2.5410095515E+01   -2.5198539642E+01
-2.4990402265E+01   -2.4785610654E+01   -2.4584092360E+01   -2.4385783283E+01
-2.4190607644E+01   -2.3998480952E+01   -2.3809327057E+01   -2.3623072162E+01
-2.3439644638E+01   -2.3258975453E+01   -2.3080998028E+01   -2.2905648202E+01
-2.2732864166E+01   -2.2562586410E+01   -2.2394757662E+01   -2.2229322824E+01
-2.2066228935E+01   -2.1905425101E+01   -2.1746862383E+01   -2.1590493807E+01
-2.1436274326E+01   -2.1284162052E+01   -2.1134118552E+01   -2.0986110013E+01
-2.0840103737E+01   -2.0696061964E+01   -2.0553948188E+01   -2.0413729674E+01
-2.0275374473E+01   -2.0138851508E+01   -2.0004131251E+01   -1.9871185418E+01
-1.9739986742E+01   -1.9610508971E+01   -1.9482726822E+01   -1.9356615712E+01
-1.9232151796E+01   -1.9109312136E+01   -1.8988074195E+01   -1.8868416959E+01
-1.8750316566E+01   -1.8633742023E+01   -1.8518655070E+01   -1.8405000113E+01
-1.8292724278E+01   -1.8181807177E+01   -1.8072235386E+01   -1.7963983353E+01
-1.7857025720E+01   -1.7751340513E+01   -1.7646905693E+01   -1.7543699320E+01
-1.7441699851E+01   -1.7340886128E+01   -1.7241237339E+01   -1.7142733022E+01
-1.7045353069E+01   -1.6949077727E+01   -1.6853887609E+01   -1.6759763697E+01
-1.6666687351E+01   -1.6574640324E+01   -1.6483604763E+01   -1.6393563227E+01
-1.6304498693E+01   -1.6216394563E+01   -1.6129234672E+01   -1.6043003292E+01
-1.5957685134E+01   -1.5873265349E+01   -1.5789729520E+01   -1.5707063657E+01
-1.5625254190E+01   -1.5544287948E+01   -1.5464152150E+01   -1.5384834383E+01
-1.5306322580E+01   -1.5228604998E+01   -1.5151670193E+01   -1.5075506996E+01
-1.5000104487E+01   -1.4925451970E+01   -1.4851538949E+01   -1.4778355108E+01
-1.4705890286E+01   -1.4634134465E+01   -1.4563077751E+01   -1.4492710359E+01
-1.4423022610E+01   -1.4354004917E+01   -1.4285647789E+01   -1.4217941820E+01
-1.4150877700E+01   -1.4084446214E+01   -1.4018638246E+01   -1.3953444788E+01
-1.3888856951E+01   -1.3824865969E+01   -1.3761463208E+01   -1.3698640182E+01
-1.3636388552E+01   -1.3574700144E+01   -1.3513566958E+01   -1.3452981236E+01
-1.3392935180E+01   -1.3333421175E+01   -1.3274431620E+01   -1.3215960700E+01
-1.3158002424E+01   -1.3100549199E+01   -1.3043590684E+01   -1.2987117007E+01
-1.2931122819E+01   -1.2875605470E+01   -1.2820563002E+01   -1.2765992348E+01
-1.2711889822E+01   -1.2658251041E+01   -1.2605067011E+01   -1.2552328686E+01
-1.2500027583E+01   -1.2448159294E+01   -1.2396719476E+01   -1.2345703647E+01
-1.2295106175E+01   -1.2244921754E+01   -1.2195145255E+01   -1.2145771804E+01
-1.2096796534E+01   -1.2048214651E+01   -1.2000021431E+01   -1.1952212227E+01
-1.1904782468E+01   -1.1857727655E+01   -1.1811043358E+01   -1.1764725219E+01
-1.1718768946E+01   -1.1673170316E+01   -1.1627925169E+01   -1.1583029411E+01
-1.1538479010E+01   -1.1494269997E+01   -1.1450398462E+01   -1.1406860557E+01
-1.1363652488E+01   -1.1320770523E+01   -1.1278210983E+01   -1.1235970246E+01
-1.1194044742E+01   -1.1152430957E+01   -1.1111125425E+01   -1.1070124735E+01
-1.1029425525E+01   -1.0989024482E+01   -1.0948918340E+01   -1.0909103882E+01
-1.0869577939E+01   -1.0830337385E+01   -1.0791379140E+01   -1.0752700169E+01
-1.0714297479E+01   -1.0676168121E+01   -1.0638309187E+01   -1.0600717810E+01
-1.0563391164E+01   -1.0526326462E+01   -1.0489520957E+01   -1.0452971938E+01
-1.0416676735E+01   -1.0380632711E+01   -1.0344837270E+01   -1.0309287848E+01
-1.0273981917E+01   -1.0238916985E+01   -1.0204090592E+01   -1.0169500312E+01
-1.0135143752E+01   -1.0101018552E+01   -1.0067122382E+01   -1.0033452944E+01
-1.0000007970E+01   -9.9667852247E+00   -9.9337824992E+00   -9.9009976152E+00
-9.8684284229E+00   -9.8360728009E+00   -9.8039286552E+00   -9.7719939192E+00
-9.7402665533E+00   -9.7087445441E+00   -9.6774259043E+00   -9.6463086720E+00
-9.6153909106E+00   -9.5846707083E+00   -9.5541461775E+00   -9.5238154547E+00
-9.4936766998E+00   -9.4637280962E+00   -9.4339678499E+00   -9.4043941895E+00
-9.3750053659E+00   -9.3457996514E+00   -9.3167753401E+00   -9.2879307471E+00
-9.2592642084E+00   -9.2307740803E+00   -9.2024587394E+00   -9.1743165823E+00
-9.1463460247E+00   -9.1185455021E+00   -9.0909134685E+00   -9.0634483970E+00
-9.0361487787E+00   -9.0090131232E+00   -8.9820399576E+00   -8.9552278269E+00
-8.9285752932E+00   -8.9020809358E+00   -8.8757433506E+00   -8.8495611504E+00
-8.8235329641E+00   -8.7976574367E+00   -8.7719332291E+00   -8.7463590177E+00
-8.7209334946E+00   -8.6956553666E+00   -8.6705233559E+00   -8.6455361990E+00
-8.6206926474E+00   -8.5959914666E+00   -8.5714314361E+00   -8.5470113497E+00
-8.5227300146E+00   -8.4985862515E+00   -8.4745788947E+00   -8.4507067913E+00
-8.4269688017E+00   -8.4033637987E+00   -8.3798906680E+00   -8.3565483076E+00
-8.3333356277E+00   -8.3102515506E+00   -8.2872950105E+00   -8.2644649535E+00
-8.2417603370E+00   -8.2191801300E+00   -8.1967233129E+00   -8.1743888768E+00
-8.1521758243E+00   -8.1300831683E+00   -8.1081099327E+00   -8.0862551519E+00
-8.0645178705E+00   -8.0428971436E+00   -8.0213920360E+00   -8.0000016231E+00
-7.9787249895E+00   -7.9575612298E+00   -7.9365094483E+00   -7.9155687586E+00
-7.8947382837E+00   -7.8740171556E+00   -7.8534045156E+00   -7.8328995140E+00
-7.8125013098E+00   -7.7922090709E+00   -7.7720219736E+00   -7.7519392029E+00
-7.7319599522E+00   -7.7120834230E+00   -7.6923088253E+00   -7.6726353769E+00
-7.6530623038E+00   -7.6335888396E+00   -7.6142142260E+00   -7.5949377122E+00
-7.5757585549E+00   -7.5566760186E+00   -7.5376893749E+00   -7.5187979027E+00
-7.5000008884E+00   -7.4812976251E+00   -7.4626874134E+00   -7.4441695605E+00
-7.4257433805E+00   -7.4074081944E+00   -7.3891633298E+00   -7.3710081210E+00
-7.3529419086E+00   -7.3349640401E+00   -7.3170738688E+00   -7.2992707546E+00
-7.2815540638E+00   -7.2639231684E+00   -7.2463774467E+00   -7.2289162832E+00
-7.2115390678E+00   -7.1942451968E+00   -7.1770340719E+00   -7.1599051006E+00
-7.1428576962E+00   -7.1258912775E+00   -7.1090052686E+00   -7.0921990993E+00
-7.0754722046E+00   -7.0588240251E+00   -7.0422540063E+00   -7.0257615992E+00
-7.0093462596E+00   -6.9930074487E+00   -6.9767446326E+00   -6.9605572822E+00
-6.9444448735E+00   -6.9284068873E+00   -6.9124428090E+00   -6.8965521291E+00
-6.8807343425E+00   -6.8649889487E+00   -6.8493154519E+00   -6.8337133608E+00
-6.8181821885E+00   -6.8027214525E+00   -6.7873306749E+00   -6.7720093817E+00
-6.7567571036E+00   -6.7415733753E+00   -6.7264577356E+00   -6.7114097276E+00
-6.6964288983E+00   -6.6815147990E+00   -6.6666669848E+00   -6.6518850147E+00
-6.6371684516E+00   -6.6225168626E+00   -6.6079298181E+00   -6.5934068926E+00
-6.5789476643E+00   -6.5645517151E+00   -6.5502186304E+00   -6.5359479993E+00
-6.5217394146E+00   -6.5075924725E+00   -6.4935067726E+00   -6.4794819183E+00
-6.4655175159E+00   -6.4516131757E+00   -6.4377685108E+00   -6.4239831379E+00
-6.4102566769E+00   -6.3965887511E+00   -6.3829789867E+00   -6.3694270133E+00
-6.3559324637E+00   -6.3424949735E+00   -6.3291141816E+00   -6.3157897300E+00
-6.3025212635E+00   -6.2893084300E+00   -6.2761508805E+00   -6.2630482685E+00
-6.2500002509E+00   -6.2370064869E+00   -6.2240666391E+00   -6.2111803724E+00
-6.1983473548E+00   -6.1855672568E+00   -6.1728397519E+00   -6.1601645161E+00
-6.1475412279E+00   -6.1349695688E+00   -6.1224492225E+00   -6.1099798756E+00
-6.0975612172E+00   -6.0851929387E+00   -6.0728747342E+00   -6.0606063002E+00
-6.0483873357E+00   -6.0362175421E+00   -6.0240966231E+00   -6.0120242850E+00
-6.0000002362E+00   -5.9880241876E+00   -5.9760958523E+00   -5.9642149457E+00
-5.9523811856E+00   -5.9405942918E+00   -5.9288539865E+00   -5.9171599941E+00
-5.9055120409E+00   -5.8939098557E+00   -5.8823531692E+00   -5.8708417143E+00
-5.8593752260E+00   -5.8479534413E+00   -5.8365760994E+00   -5.8252429412E+00
-5.8139537099E+00   -5.8027081507E+00   -5.7915060106E+00   -5.7803470385E+00
-5.7692309856E+00   -5.7581576046E+00   -5.7471266503E+00   -5.7361378793E+00
-5.7251910501E+00   -5.7142859230E+00   -5.7034222603E+00   -5.6925998258E+00
-5.6818183853E+00   -5.6710777064E+00   -5.6603775582E+00   -5.6497177119E+00
-5.6390979401E+00   -5.6285180173E+00   -5.6179777196E+00   -5.6074768248E+00
-5.5970151124E+00   -5.5865923634E+00   -5.5762083607E+00   -5.5658628885E+00
-5.5555557328E+00   -5.5452866811E+00   -5.5350555225E+00   -5.5248620477E+00
-5.5147060488E+00   -5.5045873196E+00   -5.4945056552E+00   -5.4844608524E+00
-5.4744527094E+00   -5.4644810259E+00   -5.4545456029E+00   -5.4446462431E+00
-5.4347827505E+00   -5.4249549305E+00   -5.4151625899E+00   -5.4054055370E+00
-5.3956835812E+00   -5.3859965337E+00   -5.3763442067E+00   -5.3667264139E+00
-5.3571429703E+00   -5.3475936922E+00   -5.3380783972E+00   -5.3285969042E+00
-5.3191490335E+00   -5.3097346065E+00   -5.3003534460E+00   -5.2910053759E+00
-5.2816902215E+00   -5.2724078092E+00   -5.2631579667E+00   -5.2539405228E+00
-5.2447553078E+00   -5.2356021527E+00   -5.2264808901E+00   -5.2173913536E+00
-5.2083333779E+00   -5.1993067989E+00   -5.1903114537E+00   -5.1813471804E+00
-5.1724138184E+00   -5.1635112080E+00   -5.1546391907E+00   -5.1457976090E+00
-5.1369863067E+00   -5.1282051284E+00   -5.1194539200E+00   -5.1107325282E+00
-5.1020408010E+00   -5.0933785872E+00   -5.0847457368E+00   -5.0761421007E+00
-5.0675675310E+00   -5.0590218804E+00   -5.0505050031E+00   -5.0420167538E+00
-5.0335569886E+00   -5.0251255642E+00   -5.0167223385E+00   -5.0083471703E+00
</PP_LOCAL>
<PP_NONLOCAL>
<PP_BETA.1
type="real"
size="600"
columns="4"
index="1"
angular_momentum="0"
cutoff_radius_index=" 168"
cutoff_radius="    1.6700000000E+00" >
3.5689318167E-10    7.9821092972E-02    1.5948415397E-01    2.3883097102E-01
3.1770297974E-01    3.9594110591E-01    4.7338563049E-01    5.4987608391E-01
6.2525117638E-01    6.9934877059E-01    7.7200590218E-01    8.4305885348E-01
9.1234328465E-01    9.7969442617E-01    1.0449473355E+00    1.1079372202E+00
1.1684998284E+00    1.2264719078E+00    1.2816917313E+00    1.3339996895E+00
1.3832389458E+00    1.4292561528E+00    1.4719022234E+00    1.5110331540E+00
1.5465108915E+00    1.5782042387E+00    1.6059897905E+00    1.6297528920E+00
1.6493886100E+00    1.6648027089E+00    1.6759126201E+00    1.6826483966E+00
1.6849536394E+00    1.6827863889E+00    1.6761199668E+00    1.6649437607E+00
1.6492639399E+00    1.6291040920E+00    1.6045057711E+00    1.5755289486E+00
1.5422523570E+00    1.5047737201E+00    1.4632098615E+00    1.4176966864E+00
1.3683890302E+00    1.3154603713E+00    1.2591024049E+00    1.1995244752E+00
1.1369528671E+00    1.0716299575E+00    1.0038132293E+00    9.3377415030E-01
8.6179692377E-01    7.8817711603E-01    7.1322016886E-01    6.3723980569E-01
5.6055634190E-01    4.8349491012E-01    4.0638361321E-01    3.2955161794E-01
2.5332720363E-01    1.7803578056E-01    1.0399789363E-01    3.1527227221E-02
-3.9071372531E-02   -1.0750384157E-01   -1.7348879142E-01   -2.3675933604E-01
-2.9706483605E-01   -3.5417254472E-01   -4.0786914077E-01   -4.5796213397E-01
-5.0428113005E-01   -5.4667894296E-01   -5.8503254337E-01   -6.1924383382E-01
-6.4924024221E-01   -6.7497512712E-01   -6.9642798964E-01   -7.1360448852E-01
-7.2653625703E-01   -7.3528052143E-01   -7.3991952332E-01   -7.4055974938E-01
-7.3733097407E-01   -7.3038512262E-01   -7.1989496323E-01   -7.0605263896E-01
-6.8906805151E-01   -6.6916711032E-01   -6.4658986175E-01   -6.2158851436E-01
-5.9442537707E-01   -5.6537072806E-01   -5.3470063282E-01   -5.0269473008E-01
-4.6963400501E-01   -4.3579856874E-01   -4.0146546338E-01   -3.6690651149E-01
-3.3238622807E-01   -2.9815981307E-01   -2.6447124074E-01   -2.3155146189E-01
-1.9961673337E-01   -1.6886708784E-01   -1.3948495556E-01   -1.1163394801E-01
-8.5457811649E-02   -6.1079558108E-02   -3.8600775414E-02   -1.8101122655E-02
3.6199141913E-04    1.6753547062E-02    3.1060873073E-02    4.3293432450E-02
5.3482441524E-02    6.1680333003E-02    6.7960062362E-02    7.2414320089E-02
7.5154410050E-02    7.6309779008E-02    7.6025577308E-02    7.4458109254E-02
7.1769922955E-02    6.8126768216E-02    6.3696160303E-02    5.8645208236E-02
5.3138701961E-02    4.7337193229E-02    4.1395156408E-02    3.5459228649E-02
2.9666548332E-02    2.4143209872E-02    1.9002847790E-02    1.4345363071E-02
1.0255805884E-02    6.8057270631E-03    4.0388147182E-03    1.9882323083E-03
7.4392975388E-04    1.9945356974E-04    2.7097356267E-05   -8.3119327004E-08
1.8839074998E-06    2.8874793603E-07    1.2995369201E-07   -3.5438963613E-07
-9.8159271871E-08    0.0000000000E+00    0.0000000000E+00    0.0000000000E+00
0.0000000000E+00    0.0000000000E+00    0.0000000000E+00    0.0000000000E+00
0.0000000000E+00    0.0000000000E+00    0.0000000000E+00    0.0000000000E+00
0.0000000000E+00    0.0000000000E+00    0.0000000000E+00    0.0000000000E+00
0.0000000000E+00    0.0000000000E+00    0.0000000000E+00    0.0000000000E+00
0. 0. 0. 0.
0. 0. 0. 0.
0. 0. 0. 0.
0. 0. 0. 0.
0. 0. 0. 0.
0. 0. 0. 0.
0. 0. 0. 0.
0. 0. 0. 0.
0. 0. 0. 0.
0. 0. 0. 0.
0. 0. 0. 0.
0. 0. 0. 0.
0. 0. 0. 0.
0. 0. 0. 0.
0. 0. 0. 0.
0. 0. 0. 0.
0. 0. 0. 0.
0. 0. 0. 0.
0. 0. 0. 0.
0. 0. 0. 0.
0. 0. 0. 0.
0. 0. 0. 0.
0. 0. 0. 0.
0. 0. 0. 0.
0. 0. 0. 0.
0. 0. 0. 0.
0. 0. 0. 0.
0. 0. 0. 0.
0. 0. 0. 0.
0. 0. 0. 0.
0. 0. 0. 0.
0. 0. 0. 0.
0. 0. 0. 0.
0. 0. 0. 0.
0. 0. 0. 0.
0. 0. 0. 0.
0. 0. 0. 0.
0. 0. 0. 0.
0. 0. 0. 0.
0. 0. 0. 0.
0. 0. 0. 0.
0. 0. 0. 0.
0. 0. 0. 0.
0. 0. 0. 0.
0. 0. 0. 0.
0. 0. 0. 0.
0. 0. 0. 0.
0. 0. 0. 0.
0. 0. 0. 0.
0. 0. 0. 0.
0. 0. 0. 0.
0. 0. 0. 0.
0. 0. 0. 0.
0. 0. 0. 0.
0. 0. 0. 0.
0. 0. 0. 0.
0. 0. 0. 0.
0. 0. 0. 0.
0. 0. 0. 0.
0. 0. 0. 0.
0. 0. 0. 0.
0. 0. 0. 0.
0. 0. 0. 0.
0. 0. 0. 0.
0. 0. 0. 0.
0. 0. 0. 0.
0. 0. 0. 0.
0. 0. 0. 0.
0. 0. 0. 0.
0. 0. 0. 0.
0. 0. 0. 0.
0. 0. 0. 0.
0. 0. 0. 0.
0. 0. 0. 0.
0. 0. 0. 0.
0. 0. 0. 0.
0. 0. 0. 0.