<UPF version="2.0.1">
<PP_INFO>
NOTE!!!!
This file is trimmed with a mesh size of 600 from the original version.
Trimming performed at 2023-03-31 09:10:05.061939 by trim_upf.py version 0.1.0

This pseudopotential file has been produced using the code
ONCVPSP  (Optimized Norm-Conservinng Vanderbilt PSeudopotential)
scalar-relativistic version 3.3.0 08/16/2017 by D. R. Hamann
The code is available through a link at URL www.mat-simresearch.com.
Documentation with the package provides a full discription of the
input data below.
While it is not required under the terms of the GNU GPL, it is
suggested that you cite D. R. Hamann, Phys. Rev. B 88, 085117 (2013)
in any publication using these pseudopotentials.
<PP_INPUTFILE>
# ATOM AND REFERENCE CONFIGURATION
# atsym  z   nc   nv     iexc    psfile
Mo 42.00    6    4       4      upf
#
#   n    l    f        energy (Ha)
1    0    2.00
2    0    2.00
2    1    6.00
3    0    2.00
3    1    6.00
3    2   10.00
4    0    2.00
4    1    6.00
4    2    5.00
5    0    1.00
#
# PSEUDOPOTENTIAL AND OPTIMIZATION
# lmax
2
#
#   l,   rc,      ep,       ncon, nbas, qcut
0   1.45000  -2.36471    4    7   8.20000
1   1.45000  -1.41432    4    7   8.80000
2   1.35000  -0.13792    4    7   8.80000
#
# LOCAL POTENTIAL
# lloc, lpopt,  rc(5),   dvloc0
4    5   1.25000      0.00000
#
# VANDERBILT-KLEINMAN-BYLANDER PROJECTORs
# l, nproj, debl
0    2   2.21453
1    2   2.00000
2    2   2.00000
#
# MODEL CORE CHARGE
# icmod, fcfact, rcfact
3   3.00000   1.30000
#
# LOG DERIVATIVE ANALYSIS
# epsh1, epsh2, depsh
-12.00   12.00    0.02
#
# OUTPUT GRID
# rlmax, drl
6.00    0.01
#
# TEST CONFIGURATIONS
# ncnf
0
# nvcnf
#   n    l    f
</PP_INPUTFILE>
</PP_INFO>
<!--                               -->
<!-- END OF HUMAN READABLE SECTION -->
<!--                               -->
<PP_HEADER
generated="Generated using ONCVPSP code by D. R. Hamann"
author="anonymous"
date="171031"
comment=""
element="Mo"
pseudo_type="NC"
relativistic="scalar"
is_ultrasoft="F"
is_paw="F"
is_coulomb="F"
has_so="F"
has_wfc="F"
has_gipaw="F"
core_correction="T"
functional="PBE"
z_valence="   14.00"
total_psenergy="  -1.36137425061E+02"
rho_cutoff="   1.63900000000E+01"
l_max="2"
l_local="-1"
mesh_size="   600"
number_of_wfc="4"
number_of_proj="6"/>
<PP_MESH>
<PP_R type="real"  size="600" columns="8">
0.0000    0.0100    0.0200    0.0300    0.0400    0.0500    0.0600    0.0700
0.0800    0.0900    0.1000    0.1100    0.1200    0.1300    0.1400    0.1500
0.1600    0.1700    0.1800    0.1900    0.2000    0.2100    0.2200    0.2300
0.2400    0.2500    0.2600    0.2700    0.2800    0.2900    0.3000    0.3100
0.3200    0.3300    0.3400    0.3500    0.3600    0.3700    0.3800    0.3900
0.4000    0.4100    0.4200    0.4300    0.4400    0.4500    0.4600    0.4700
0.4800    0.4900    0.5000    0.5100    0.5200    0.5300    0.5400    0.5500
0.5600    0.5700    0.5800    0.5900    0.6000    0.6100    0.6200    0.6300
0.6400    0.6500    0.6600    0.6700    0.6800    0.6900    0.7000    0.7100
0.7200    0.7300    0.7400    0.7500    0.7600    0.7700    0.7800    0.7900
0.8000    0.8100    0.8200    0.8300    0.8400    0.8500    0.8600    0.8700
0.8800    0.8900    0.9000    0.9100    0.9200    0.9300    0.9400    0.9500
0.9600    0.9700    0.9800    0.9900    1.0000    1.0100    1.0200    1.0300
1.0400    1.0500    1.0600    1.0700    1.0800    1.0900    1.1000    1.1100
1.1200    1.1300    1.1400    1.1500    1.1600    1.1700    1.1800    1.1900
1.2000    1.2100    1.2200    1.2300    1.2400    1.2500    1.2600    1.2700
1.2800    1.2900    1.3000    1.3100    1.3200    1.3300    1.3400    1.3500
1.3600    1.3700    1.3800    1.3900    1.4000    1.4100    1.4200    1.4300
1.4400    1.4500    1.4600    1.4700    1.4800    1.4900    1.5000    1.5100
1.5200    1.5300    1.5400    1.5500    1.5600    1.5700    1.5800    1.5900
1.6000    1.6100    1.6200    1.6300    1.6400    1.6500    1.6600    1.6700
1.6800    1.6900    1.7000    1.7100    1.7200    1.7300    1.7400    1.7500
1.7600    1.7700    1.7800    1.7900    1.8000    1.8100    1.8200    1.8300
1.8400    1.8500    1.8600    1.8700    1.8800    1.8900    1.9000    1.9100
1.9200    1.9300    1.9400    1.9500    1.9600    1.9700    1.9800    1.9900
2.0000    2.0100    2.0200    2.0300    2.0400    2.0500    2.0600    2.0700
2.0800    2.0900    2.1000    2.1100    2.1200    2.1300    2.1400    2.1500
2.1600    2.1700    2.1800    2.1900    2.2000    2.2100    2.2200    2.2300
2.2400    2.2500    2.2600    2.2700    2.2800    2.2900    2.3000    2.3100
2.3200    2.3300    2.3400    2.3500    2.3600    2.3700    2.3800    2.3900
2.4000    2.4100    2.4200    2.4300    2.4400    2.4500    2.4600    2.4700
2.4800    2.4900    2.5000    2.5100    2.5200    2.5300    2.5400    2.5500
2.5600    2.5700    2.5800    2.5900    2.6000    2.6100    2.6200    2.6300
2.6400    2.6500    2.6600    2.6700    2.6800    2.6900    2.7000    2.7100
2.7200    2.7300    2.7400    2.7500    2.7600    2.7700    2.7800    2.7900
2.8000    2.8100    2.8200    2.8300    2.8400    2.8500    2.8600    2.8700
2.8800    2.8900    2.9000    2.9100    2.9200    2.9300    2.9400    2.9500
2.9600    2.9700    2.9800    2.9900    3.0000    3.0100    3.0200    3.0300
3.0400    3.0500    3.0600    3.0700    3.0800    3.0900    3.1000    3.1100
3.1200    3.1300    3.1400    3.1500    3.1600    3.1700    3.1800    3.1900
3.2000    3.2100    3.2200    3.2300    3.2400    3.2500    3.2600    3.2700
3.2800    3.2900    3.3000    3.3100    3.3200    3.3300    3.3400    3.3500
3.3600    3.3700    3.3800    3.3900    3.4000    3.4100    3.4200    3.4300
3.4400    3.4500    3.4600    3.4700    3.4800    3.4900    3.5000    3.5100
3.5200    3.5300    3.5400    3.5500    3.5600    3.5700    3.5800    3.5900
3.6000    3.6100    3.6200    3.6300    3.6400    3.6500    3.6600    3.6700
3.6800    3.6900    3.7000    3.7100    3.7200    3.7300    3.7400    3.7500
3.7600    3.7700    3.7800    3.7900    3.8000    3.8100    3.8200    3.8300
3.8400    3.8500    3.8600    3.8700    3.8800    3.8900    3.9000    3.9100
3.9200    3.9300    3.9400    3.9500    3.9600    3.9700    3.9800    3.9900
4.0000    4.0100    4.0200    4.0300    4.0400    4.0500    4.0600    4.0700
4.0800    4.0900    4.1000    4.1100    4.1200    4.1300    4.1400    4.1500
4.1600    4.1700    4.1800    4.1900    4.2000    4.2100    4.2200    4.2300
4.2400    4.2500    4.2600    4.2700    4.2800    4.2900    4.3000    4.3100
4.3200    4.3300    4.3400    4.3500    4.3600    4.3700    4.3800    4.3900
4.4000    4.4100    4.4200    4.4300    4.4400    4.4500    4.4600    4.4700
4.4800    4.4900    4.5000    4.5100    4.5200    4.5300    4.5400    4.5500
4.5600    4.5700    4.5800    4.5900    4.6000    4.6100    4.6200    4.6300
4.6400    4.6500    4.6600    4.6700    4.6800    4.6900    4.7000    4.7100
4.7200    4.7300    4.7400    4.7500    4.7600    4.7700    4.7800    4.7900
4.8000    4.8100    4.8200    4.8300    4.8400    4.8500    4.8600    4.8700
4.8800    4.8900    4.9000    4.9100    4.9200    4.9300    4.9400    4.9500
4.9600    4.9700    4.9800    4.9900    5.0000    5.0100    5.0200    5.0300
5.0400    5.0500    5.0600    5.0700    5.0800    5.0900    5.1000    5.1100
5.1200    5.1300    5.1400    5.1500    5.1600    5.1700    5.1800    5.1900
5.2000    5.2100    5.2200    5.2300    5.2400    5.2500    5.2600    5.2700
5.2800    5.2900    5.3000    5.3100    5.3200    5.3300    5.3400    5.3500
5.3600    5.3700    5.3800    5.3900    5.4000    5.4100    5.4200    5.4300
5.4400    5.4500    5.4600    5.4700    5.4800    5.4900    5.5000    5.5100
5.5200    5.5300    5.5400    5.5500    5.5600    5.5700    5.5800    5.5900
5.6000    5.6100    5.6200    5.6300    5.6400    5.6500    5.6600    5.6700
5.6800    5.6900    5.7000    5.7100    5.7200    5.7300    5.7400    5.7500
5.7600    5.7700    5.7800    5.7900    5.8000    5.8100    5.8200    5.8300
5.8400    5.8500    5.8600    5.8700    5.8800    5.8900    5.9000    5.9100
5.9200    5.9300    5.9400    5.9500    5.9600    5.9700    5.9800    5.9900
</PP_R>
<PP_RAB type="real"  size="600" columns="8">
0.0100    0.0100    0.0100    0.0100    0.0100    0.0100    0.0100    0.0100
0.0100    0.0100    0.0100    0.0100    0.0100    0.0100    0.0100    0.0100
0.0100    0.0100    0.0100    0.0100    0.0100    0.0100    0.0100    0.0100
0.0100    0.0100    0.0100    0.0100    0.0100    0.0100    0.0100    0.0100
0.0100    0.0100    0.0100    0.0100    0.0100    0.0100    0.0100    0.0100
0.0100    0.0100    0.0100    0.0100    0.0100    0.0100    0.0100    0.0100
0.0100    0.0100    0.0100    0.0100    0.0100    0.0100    0.0100    0.0100
0.0100    0.0100    0.0100    0.0100    0.0100    0.0100    0.0100    0.0100
0.0100    0.0100    0.0100    0.0100    0.0100    0.0100    0.0100    0.0100
0.0100    0.0100    0.0100    0.0100    0.0100    0.0100    0.0100    0.0100
0.0100    0.0100    0.0100    0.0100    0.0100    0.0100    0.0100    0.0100
0.0100    0.0100    0.0100    0.0100    0.0100    0.0100    0.0100    0.0100
0.0100    0.0100    0.0100    0.0100    0.0100    0.0100    0.0100    0.0100
0.0100    0.0100    0.0100    0.0100    0.0100    0.0100    0.0100    0.0100
0.0100    0.0100    0.0100    0.0100    0.0100    0.0100    0.0100    0.0100
0.0100    0.0100    0.0100    0.0100    0.0100    0.0100    0.0100    0.0100
0.0100    0.0100    0.0100    0.0100    0.0100    0.0100    0.0100    0.0100
0.0100    0.0100    0.0100    0.0100    0.0100    0.0100    0.0100    0.0100
0.0100    0.0100    0.0100    0.0100    0.0100    0.0100    0.0100    0.0100
0.0100    0.0100    0.0100    0.0100    0.0100    0.0100    0.0100    0.0100
0.0100    0.0100    0.0100    0.0100    0.0100    0.0100    0.0100    0.0100
0.0100    0.0100    0.0100    0.0100    0.0100    0.0100    0.0100    0.0100
0.0100    0.0100    0.0100    0.0100    0.0100    0.0100    0.0100    0.0100
0.0100    0.0100    0.0100    0.0100    0.0100    0.0100    0.0100    0.0100
0.0100    0.0100    0.0100    0.0100    0.0100    0.0100    0.0100    0.0100
0.0100    0.0100    0.0100    0.0100    0.0100    0.0100    0.0100    0.0100
0.0100    0.0100    0.0100    0.0100    0.0100    0.0100    0.0100    0.0100
0.0100    0.0100    0.0100    0.0100    0.0100    0.0100    0.0100    0.0100
0.0100    0.0100    0.0100    0.0100    0.0100    0.0100    0.0100    0.0100
0.0100    0.0100    0.0100    0.0100    0.0100    0.0100    0.0100    0.0100
0.0100    0.0100    0.0100    0.0100    0.0100    0.0100    0.0100    0.0100
0.0100    0.0100    0.0100    0.0100    0.0100    0.0100    0.0100    0.0100
0.0100    0.0100    0.0100    0.0100    0.0100    0.0100    0.0100    0.0100
0.0100    0.0100    0.0100    0.0100    0.0100    0.0100    0.0100    0.0100
0.0100    0.0100    0.0100    0.0100    0.0100    0.0100    0.0100    0.0100
0.0100    0.0100    0.0100    0.0100    0.0100    0.0100    0.0100    0.0100
0.0100    0.0100    0.0100    0.0100    0.0100    0.0100    0.0100    0.0100
0.0100    0.0100    0.0100    0.0100    0.0100    0.0100    0.0100    0.0100
0.0100    0.0100    0.0100    0.0100    0.0100    0.0100    0.0100    0.0100
0.0100    0.0100    0.0100    0.0100    0.0100    0.0100    0.0100    0.0100
0.0100    0.0100    0.0100    0.0100    0.0100    0.0100    0.0100    0.0100
0.0100    0.0100    0.0100    0.0100    0.0100    0.0100    0.0100    0.0100
0.0100    0.0100    0.0100    0.0100    0.0100    0.0100    0.0100    0.0100
0.0100    0.0100    0.0100    0.0100    0.0100    0.0100    0.0100    0.0100
0.0100    0.0100    0.0100    0.0100    0.0100    0.0100    0.0100    0.0100
0.0100    0.0100    0.0100    0.0100    0.0100    0.0100    0.0100    0.0100
0.0100    0.0100    0.0100    0.0100    0.0100    0.0100    0.0100    0.0100
0.0100    0.0100    0.0100    0.0100    0.0100    0.0100    0.0100    0.0100
0.0100    0.0100    0.0100    0.0100    0.0100    0.0100    0.0100    0.0100
0.0100    0.0100    0.0100    0.0100    0.0100    0.0100    0.0100    0.0100
0.0100    0.0100    0.0100    0.0100    0.0100    0.0100    0.0100    0.0100
0.0100    0.0100    0.0100    0.0100    0.0100    0.0100    0.0100    0.0100
0.0100    0.0100    0.0100    0.0100    0.0100    0.0100    0.0100    0.0100
0.0100    0.0100    0.0100    0.0100    0.0100    0.0100    0.0100    0.0100
0.0100    0.0100    0.0100    0.0100    0.0100    0.0100    0.0100    0.0100
0.0100    0.0100    0.0100    0.0100    0.0100    0.0100    0.0100    0.0100
0.0100    0.0100    0.0100    0.0100    0.0100    0.0100    0.0100    0.0100
0.0100    0.0100    0.0100    0.0100    0.0100    0.0100    0.0100    0.0100
0.0100    0.0100    0.0100    0.0100    0.0100    0.0100    0.0100    0.0100
0.0100    0.0100    0.0100    0.0100    0.0100    0.0100    0.0100    0.0100
0.0100    0.0100    0.0100    0.0100    0.0100    0.0100    0.0100    0.0100
0.0100    0.0100    0.0100    0.0100    0.0100    0.0100    0.0100    0.0100
0.0100    0.0100    0.0100    0.0100    0.0100    0.0100    0.0100    0.0100
0.0100    0.0100    0.0100    0.0100    0.0100    0.0100    0.0100    0.0100
0.0100    0.0100    0.0100    0.0100    0.0100    0.0100    0.0100    0.0100
0.0100    0.0100    0.0100    0.0100    0.0100    0.0100    0.0100    0.0100
0.0100    0.0100    0.0100    0.0100    0.0100    0.0100    0.0100    0.0100
0.0100    0.0100    0.0100    0.0100    0.0100    0.0100    0.0100    0.0100
0.0100    0.0100    0.0100    0.0100    0.0100    0.0100    0.0100    0.0100
0.0100    0.0100    0.0100    0.0100    0.0100    0.0100    0.0100    0.0100
0.0100    0.0100    0.0100    0.0100    0.0100    0.0100    0.0100    0.0100
0.0100    0.0100    0.0100    0.0100    0.0100    0.0100    0.0100    0.0100
0.0100    0.0100    0.0100    0.0100    0.0100    0.0100    0.0100    0.0100
0.0100    0.0100    0.0100    0.0100    0.0100    0.0100    0.0100    0.0100
0.0100    0.0100    0.0100    0.0100    0.0100    0.0100    0.0100    0.0100
</PP_RAB>
</PP_MESH>
<PP_LOCAL type="real"  size="600" columns="4">
-4.6912236291E+01   -4.6909654724E+01   -4.6901911957E+01   -4.6889014687E+01
-4.6870973879E+01   -4.6847804641E+01   -4.6819526001E+01   -4.6786160638E+01
-4.6747734560E+01   -4.6704276752E+01   -4.6655818793E+01   -4.6602394459E+01
-4.6544039324E+01   -4.6480790353E+01   -4.6412685520E+01   -4.6339763431E+01
-4.6262062977E+01   -4.6179623023E+01   -4.6092482113E+01   -4.6000678232E+01
-4.5904248587E+01   -4.5803229439E+01   -4.5697655967E+01   -4.5587562174E+01
-4.5472980828E+01   -4.5353943440E+01   -4.5230480280E+01   -4.5102620421E+01
-4.4970391823E+01   -4.4833821447E+01   -4.4692935398E+01   -4.4547759101E+01
-4.4398317508E+01   -4.4244635334E+01   -4.4086737324E+01   -4.3924648539E+01
-4.3758394686E+01   -4.3588002455E+01   -4.3413499885E+01   -4.3234916752E+01
-4.3052284960E+01   -4.2865638943E+01   -4.2675016068E+01   -4.2480457020E+01
-4.2282006176E+01   -4.2079711935E+01   -4.1873627023E+01   -4.1663808729E+01
-4.1450319094E+01   -4.1233225020E+01   -4.1012598316E+01   -4.0788515655E+01
-4.0561058470E+01   -4.0330312764E+01   -4.0096368876E+01   -3.9859321176E+01
-3.9619267732E+01   -3.9376309956E+01   -3.9130552225E+01   -3.8882101525E+01
-3.8631067095E+01   -3.8377560111E+01   -3.8121693395E+01   -3.7863581173E+01
-3.7603338867E+01   -3.7341082929E+01   -3.7076930720E+01   -3.6811000416E+01
-3.6543410951E+01   -3.6274281976E+01   -3.6003733850E+01   -3.5731887633E+01
-3.5458865101E+01   -3.5184788754E+01   -3.4909781843E+01   -3.4633968382E+01
-3.4357473159E+01   -3.4080421747E+01   -3.3802940495E+01   -3.3525156510E+01
-3.3247197616E+01   -3.2969192303E+01   -3.2691269640E+01   -3.2413559173E+01
-3.2136190787E+01   -3.1859294549E+01   -3.1583000512E+01   -3.1307438500E+01
-3.1032737867E+01   -3.0759027223E+01   -3.0486434154E+01   -3.0215084917E+01
-2.9945104126E+01   -2.9676614436E+01   -2.9409736212E+01   -2.9144587219E+01
-2.8881282299E+01   -2.8619933074E+01   -2.8360647651E+01   -2.8103530344E+01
-2.7848681421E+01   -2.7596196854E+01   -2.7346168103E+01   -2.7098681903E+01
-2.6853820078E+01   -2.6611659371E+01   -2.6372271280E+01   -2.6135721914E+01
-2.5902071861E+01   -2.5671376060E+01   -2.5443683688E+01   -2.5219038042E+01
-2.4997476438E+01   -2.4779030103E+01   -2.4563724072E+01   -2.4351577089E+01
-2.4142601499E+01   -2.3936803143E+01   -2.3734181253E+01   -2.3534728341E+01
-2.3338430083E+01   -2.3145265201E+01   -2.2955205343E+01   -2.2768214964E+01
-2.2584251155E+01   -2.2403263742E+01   -2.2225194484E+01   -2.2049977973E+01
-2.1877545409E+01   -2.1707828193E+01   -2.1540760174E+01   -2.1376276690E+01
-2.1214314783E+01   -2.1054813073E+01   -2.0897711935E+01   -2.0742952216E+01
-2.0590473930E+01   -2.0440215709E+01   -2.0292116822E+01   -2.0146123015E+01
-2.0002185101E+01   -1.9860257322E+01   -1.9720292908E+01   -1.9582244512E+01
-1.9446067667E+01   -1.9311724944E+01   -1.9179188423E+01   -1.9048442628E+01
-1.8919479303E+01   -1.8792273207E+01   -1.8666786100E+01   -1.8542979345E+01
-1.8420816276E+01   -1.8300267927E+01   -1.8181305248E+01   -1.8063895918E+01
-1.7948009071E+01   -1.7833615506E+01   -1.7720686325E+01   -1.7609193106E+01
-1.7499108102E+01   -1.7390404185E+01   -1.7283054820E+01   -1.7177034068E+01
-1.7072316583E+01   -1.6968877600E+01   -1.6866692935E+01   -1.6765738977E+01
-1.6665992682E+01   -1.6567431566E+01   -1.6470033697E+01   -1.6373777690E+01
-1.6278642698E+01   -1.6184608400E+01   -1.6091654997E+01   -1.5999763198E+01
-1.5908914213E+01   -1.5819089740E+01   -1.5730271956E+01   -1.5642443504E+01
-1.5555587479E+01   -1.5469687421E+01   -1.5384727298E+01   -1.5300691494E+01
-1.5217564797E+01   -1.5135332386E+01   -1.5053979817E+01   -1.4973493009E+01
-1.4893858233E+01   -1.4815062096E+01   -1.4737091533E+01   -1.4659933786E+01
-1.4583576398E+01   -1.4508007201E+01   -1.4433214299E+01   -1.4359186058E+01
-1.4285911098E+01   -1.4213378278E+01   -1.4141576686E+01   -1.4070495633E+01
-1.4000124637E+01   -1.3930453419E+01   -1.3861471891E+01   -1.3793170151E+01
-1.3725538474E+01   -1.3658567304E+01   -1.3592247250E+01   -1.3526569076E+01
-1.3461523701E+01   -1.3397102192E+01   -1.3333295756E+01   -1.3270095743E+01
-1.3207493636E+01   -1.3145481053E+01   -1.3084049740E+01   -1.3023191575E+01
-1.2962898559E+01   -1.2903162819E+01   -1.2843976607E+01   -1.2785332295E+01
-1.2727222381E+01   -1.2669639481E+01   -1.2612576334E+01   -1.2556025799E+01
-1.2499980854E+01   -1.2444434600E+01   -1.2389380256E+01   -1.2334811161E+01
-1.2280720774E+01   -1.2227102672E+01   -1.2173950550E+01   -1.2121258223E+01
-1.2069019620E+01   -1.2017228788E+01   -1.1965879887E+01   -1.1914967192E+01
-1.1864485089E+01   -1.1814428073E+01   -1.1764790750E+01   -1.1715567827E+01
-1.1666754121E+01   -1.1618344544E+01   -1.1570334111E+01   -1.1522717930E+01
-1.1475491203E+01   -1.1428649221E+01   -1.1382187363E+01   -1.1336101090E+01
-1.1290385945E+01   -1.1245037546E+01   -1.1200051589E+01   -1.1155423837E+01
-1.1111150123E+01   -1.1067226347E+01   -1.1023648469E+01   -1.0980412508E+01
-1.0937514545E+01   -1.0894950710E+01   -1.0852717192E+01   -1.0810810226E+01
-1.0769226099E+01   -1.0727961145E+01   -1.0687011744E+01   -1.0646374323E+01
-1.0606045351E+01   -1.0566021342E+01   -1.0526298852E+01   -1.0486874479E+01
-1.0447744865E+01   -1.0408906692E+01   -1.0370356686E+01   -1.0332091612E+01
-1.0294108279E+01   -1.0256403538E+01   -1.0218974282E+01   -1.0181817448E+01
-1.0144930013E+01   -1.0108309001E+01   -1.0071951474E+01   -1.0035854545E+01
-1.0000015364E+01   -9.9644311397E+00   -9.9290991024E+00   -9.8940165120E+00
-9.8591806758E+00   -9.8245889142E+00   -9.7902388254E+00   -9.7561279305E+00
-9.7222538956E+00   -9.6886139247E+00   -9.6552052040E+00   -9.6220249903E+00
-9.5890707079E+00   -9.5563402838E+00   -9.5238317028E+00   -9.4915429810E+00
-9.4594725458E+00   -9.4276187974E+00   -9.3959801454E+00   -9.3645547899E+00
-9.3333398991E+00   -9.3023328758E+00   -9.2715308107E+00   -9.2409316416E+00
-9.2105335306E+00   -9.1803346399E+00   -9.1503333306E+00   -9.1205275109E+00
-9.0909152729E+00   -9.0614946991E+00   -9.0322639132E+00   -9.0032211074E+00
-8.9743644746E+00   -8.9456922324E+00   -8.9172026188E+00   -8.8888938939E+00
-8.8607643402E+00   -8.8328122623E+00   -8.8050359856E+00   -8.7774338570E+00
-8.7500042437E+00   -8.7227455334E+00   -8.6956561339E+00   -8.6687344724E+00
-8.6419789960E+00   -8.6153881704E+00   -8.5889604806E+00   -8.5626944298E+00
-8.5365885396E+00   -8.5106413495E+00   -8.4848514167E+00   -8.4592173160E+00
-8.4337376392E+00   -8.4084109951E+00   -8.3832360091E+00   -8.3582113230E+00
-8.3333355948E+00   -8.3086074986E+00   -8.2840257239E+00   -8.2595889758E+00
-8.2352959746E+00   -8.2111454557E+00   -8.1871361693E+00   -8.1632668800E+00
-8.1395363669E+00   -8.1159434232E+00   -8.0924868562E+00   -8.0691654867E+00
-8.0459781493E+00   -8.0229236918E+00   -8.0000009751E+00   -7.9772088734E+00
-7.9545462733E+00   -7.9320120743E+00   -7.9096051882E+00   -7.8873245391E+00
-7.8651690632E+00   -7.8431377087E+00   -7.8212294354E+00   -7.7994432146E+00
-7.7777780294E+00   -7.7562328739E+00   -7.7348067533E+00   -7.7134986839E+00
-7.6923076927E+00   -7.6712328174E+00   -7.6502731062E+00   -7.6294276177E+00
-7.6086954208E+00   -7.5880755944E+00   -7.5675672273E+00   -7.5471694182E+00
-7.5268812756E+00   -7.5067019174E+00   -7.4866304709E+00   -7.4666660730E+00
-7.4468078694E+00   -7.4270550152E+00   -7.4074066741E+00   -7.3878620190E+00
-7.3684202312E+00   -7.3490805007E+00   -7.3298420261E+00   -7.3107040141E+00
-7.2916656801E+00   -7.2727262471E+00   -7.2538849466E+00   -7.2351410179E+00
-7.2164937080E+00   -7.1979422718E+00   -7.1794859718E+00   -7.1611240781E+00
-7.1428558682E+00   -7.1246806269E+00   -7.1065976464E+00   -7.0886062259E+00
-7.0707056717E+00   -7.0528952973E+00   -7.0351744228E+00   -7.0175423754E+00
-6.9999984889E+00   -6.9825421036E+00   -6.9651725666E+00   -6.9478892313E+00
-6.9306914577E+00   -6.9135786119E+00   -6.8965500665E+00   -6.8796051999E+00
-6.8627433970E+00   -6.8459640485E+00   -6.8292665510E+00   -6.8126503070E+00
-6.7961147250E+00   -6.7796592190E+00   -6.7632832087E+00   -6.7469861195E+00
-6.7307673822E+00   -6.7146264332E+00   -6.6985627140E+00   -6.6825756719E+00
-6.6666647590E+00   -6.6508294329E+00   -6.6350691563E+00   -6.6193833968E+00
-6.6037716273E+00   -6.5882333254E+00   -6.5727679738E+00   -6.5573750599E+00
-6.5420540760E+00   -6.5268045190E+00   -6.5116258907E+00   -6.4965176973E+00
-6.4814794498E+00   -6.4665106634E+00   -6.4516108580E+00   -6.4367795580E+00
-6.4220162918E+00   -6.4073205926E+00   -6.3926919974E+00   -6.3781300478E+00
-6.3636342892E+00   -6.3492042715E+00   -6.3348395484E+00   -6.3205396777E+00
-6.3063042213E+00   -6.2921327448E+00   -6.2780248180E+00   -6.2639800143E+00
-6.2499979109E+00   -6.2360780891E+00   -6.2222201335E+00   -6.2084236326E+00
-6.1946881785E+00   -6.1810133670E+00   -6.1673987974E+00   -6.1538440723E+00
-6.1403487981E+00   -6.1269125846E+00   -6.1135350448E+00   -6.1002157953E+00
-6.0869544559E+00   -6.0737506497E+00   -6.0606040032E+00   -6.0475141459E+00
-6.0344807108E+00   -6.0215033338E+00   -6.0085816539E+00   -5.9957153135E+00
-5.9829039577E+00   -5.9701472348E+00   -5.9574447961E+00   -5.9447962959E+00
-5.9322013912E+00   -5.9196597422E+00   -5.9071710119E+00   -5.8947348659E+00
-5.8823509728E+00   -5.8700190041E+00   -5.8577386338E+00   -5.8455095388E+00
-5.8333313985E+00   -5.8212038952E+00   -5.8091267137E+00   -5.7970995415E+00
-5.7851220685E+00   -5.7731939873E+00   -5.7613149931E+00   -5.7494847834E+00
-5.7377030584E+00   -5.7259695205E+00   -5.7142838749E+00   -5.7026458287E+00
-5.6910550918E+00   -5.6795113763E+00   -5.6680143967E+00   -5.6565638696E+00
-5.6451595141E+00   -5.6338010516E+00   -5.6224882055E+00   -5.6112207015E+00
-5.5999982677E+00   -5.5888206342E+00   -5.5776875331E+00   -5.5665986989E+00
-5.5555538682E+00   -5.5445527794E+00   -5.5335951733E+00   -5.5226807925E+00
-5.5118093818E+00   -5.5009806879E+00   -5.4901944595E+00   -5.4794504473E+00
-5.4687484040E+00   -5.4580880841E+00   -5.4474692441E+00   -5.4368916423E+00
-5.4263550390E+00   -5.4158591963E+00   -5.4054038782E+00   -5.3949888502E+00
-5.3846138801E+00   -5.3742787372E+00   -5.3639831925E+00   -5.3537270189E+00
-5.3435099910E+00   -5.3333318851E+00   -5.3231924792E+00   -5.3130915530E+00
-5.3030288879E+00   -5.2930042668E+00   -5.2830174745E+00   -5.2730682972E+00
-5.2631565228E+00   -5.2532819408E+00   -5.2434443421E+00   -5.2336435195E+00
-5.2238792671E+00   -5.2141513805E+00   -5.2044596571E+00   -5.1948038954E+00
-5.1851838958E+00   -5.1755994598E+00   -5.1660503907E+00   -5.1565364931E+00
-5.1470575730E+00   -5.1376134378E+00   -5.1282038964E+00   -5.1188287592E+00
-5.1094878376E+00   -5.1001809449E+00   -5.0909078953E+00   -5.0816685045E+00
-5.0724625898E+00   -5.0632899694E+00   -5.0541504630E+00   -5.0450438917E+00
-5.0359700777E+00   -5.0269288447E+00   -5.0179200174E+00   -5.0089434219E+00
-4.9999988856E+00   -4.9910862370E+00   -4.9822053058E+00   -4.9733559232E+00
-4.9645379212E+00   -4.9557511333E+00   -4.9469953940E+00   -4.9382705390E+00
-4.9295764052E+00   -4.9209128306E+00   -4.9122796543E+00   -4.9036767168E+00
-4.8951038593E+00   -4.8865609244E+00   -4.8780477556E+00   -4.8695641978E+00
-4.8611100966E+00   -4.8526852990E+00   -4.8442896527E+00   -4.8359230068E+00
-4.8275852113E+00   -4.8192761172E+00   -4.8109955765E+00   -4.8027434423E+00
-4.7945195687E+00   -4.7863238108E+00   -4.7781560246E+00   -4.7700160672E+00
-4.7619037966E+00   -4.7538190717E+00   -4.7457617525E+00   -4.7377316999E+00
-4.7297287758E+00   -4.7217528428E+00   -4.7138037646E+00   -4.7058814059E+00
-4.6979856322E+00   -4.6901163098E+00   -4.6822733060E+00   -4.6744564892E+00
</PP_LOCAL>
<PP_NONLOCAL>
<PP_BETA.1
type="real"
size="600"
columns="4"
index="1"
angular_momentum="0"
cutoff_radius_index=" 152"
cutoff_radius="    1.5100000000E+00" >
1.8252915845E-10    5.5879310151E-02    1.1171786525E-01    1.6747450996E-01
2.2310729353E-01    2.7857308473E-01    3.3382720203E-01    3.8882306365E-01
4.4351186229E-01    4.9784226881E-01    5.5176016913E-01    6.0520843814E-01
6.5812675420E-01    7.1045145718E-01    7.6211545303E-01    8.1304816693E-01
8.6317554699E-01    9.1242011982E-01    9.6070109882E-01    1.0079345456E+00
1.0540335841E+00    1.0989086677E+00    1.1424678961E+00    1.1846173829E+00
1.2252616698E+00    1.2643041849E+00    1.3016477431E+00    1.3371950839E+00
1.3708494425E+00    1.4025151513E+00    1.4320982648E+00    1.4595072050E+00
1.4846534204E+00    1.5074520540E+00    1.5278226138E+00    1.5456896411E+00
1.5609833685E+00    1.5736403650E+00    1.5836041579E+00    1.5908258301E+00
1.5952645833E+00    1.5968882641E+00    1.5956738458E+00    1.5916078630E+00
1.5846867915E+00    1.5749173718E+00    1.5623168705E+00    1.5469132769E+00
1.5287454323E+00    1.5078630878E+00    1.4843268910E+00    1.4582082988E+00
1.4295894162E+00    1.3985627602E+00    1.3652309516E+00    1.3297063324E+00
1.2921105140E+00    1.2525738565E+00    1.2112348831E+00    1.1682396320E+00
1.1237409524E+00    1.0778977460E+00    1.0308741618E+00    9.8283874878E-01
9.3396357208E-01    8.8442330001E-01    8.3439426755E-01    7.8405352397E-01
7.3357787119E-01    6.8314290032E-01    6.3292203352E-01    5.8308557841E-01
5.3379980225E-01    4.8522603291E-01    4.3751979348E-01    3.9082997703E-01
3.4529806786E-01    3.0105741510E-01    2.5823256403E-01    2.1693865023E-01
1.7728086087E-01    1.3935396708E-01    1.0324193066E-01    6.9017587779E-02
3.6742411645E-02    6.4663554385E-03   -2.1772223834E-02   -4.7946560634E-02
-7.2041396079E-02   -9.4052814444E-02   -1.1398800304E-01   -1.3186493823E-01
-1.4771200081E-01   -1.6156752477E-01   -1.7347928378E-01   -1.8350392034E-01
-1.9170632290E-01   -1.9815895676E-01   -2.0294115470E-01   -2.0613837367E-01
-2.0784142406E-01   -2.0814567809E-01   -2.0715026407E-01   -2.0495725306E-01
-2.0167084469E-01   -1.9739655833E-01   -1.9224043593E-01   -1.8630826255E-01
-1.7970480989E-01   -1.7253310834E-01   -1.6489375192E-01   -1.5688424072E-01
-1.4859836428E-01   -1.4012562911E-01   -1.3155073293E-01   -1.2295308741E-01
-1.1440639088E-01   -1.0597825135E-01   -9.7729859883E-02   -8.9715713839E-02
-8.1983388311E-02   -7.4573354001E-02   -6.7518838026E-02   -6.0845730530E-02
-5.4572506746E-02   -4.8710290585E-02   -4.3262602733E-02   -3.8225774082E-02
-3.3590433450E-02   -2.9343269949E-02   -2.5468441972E-02   -2.1947930744E-02
-1.8762246012E-02   -1.5891055335E-02   -1.3313814568E-02   -1.1010371543E-02
-8.9615463498E-03   -7.1496799766E-03   -5.5591452422E-03   -4.1768142037E-03
-2.9924799117E-03   -1.9996791735E-03   -1.1938671145E-03   -5.7402430796E-04
-1.5323194407E-04    6.4098793445E-05    9.3388131413E-05    2.0659671166E-05
-1.5885976092E-05   -1.2412009454E-06    3.2830777354E-06   -9.0962842476E-08
0. 0. 0. 0.
0. 0. 0. 0.
0. 0. 0. 0.
0. 0. 0. 0.
0. 0. 0. 0.
0. 0. 0. 0.
0. 0. 0. 0.
0. 0. 0. 0.
0. 0. 0. 0.
0. 0. 0. 0.
0. 0. 0. 0.
0. 0. 0. 0.
0. 0. 0. 0.
0. 0. 0. 0.
0. 0. 0. 0.
0. 0. 0. 0.
0. 0. 0. 0.
0. 0. 0. 0.
0. 0. 0. 0.
0. 0. 0. 0.
0. 0. 0. 0.
0. 0. 0. 0.
0. 0. 0. 0.
0. 0. 0. 0.
0. 0. 0. 0.
0. 0. 0. 0.
0. 0. 0. 0.
0. 0. 0. 0.
0. 0. 0. 0.
0. 0. 0. 0.
0. 0. 0. 0.
0. 0. 0. 0.
0. 0. 0. 0.
0. 0. 0. 0.
0. 0. 0. 0.
0. 0. 0. 0.
0. 0. 0. 0.
0. 0. 0. 0.
0. 0. 0. 0.
0. 0. 0. 0.
0. 0. 0. 0.
0. 0. 0. 0.
0. 0. 0. 0.
0. 0. 0. 0.
0. 0. 0. 0.
0. 0. 0. 0.
0. 0. 0. 0.
0. 0. 0. 0.
0. 0. 0. 0.
0. 0. 0. 0.
0. 0. 0. 0.
0. 0. 0. 0.
0. 0. 0. 0.
0. 0. 0. 0.
0. 0. 0. 0.
0. 0. 0. 0.
0. 0. 0. 0.
0. 0. 0. 0.
0. 0. 0. 0.
0. 0. 0. 0.
0. 0. 0. 0.
0. 0. 0. 0.
0. 0. 0. 0.
0. 0. 0. 0.
0. 0. 0. 0.
0. 0. 0. 0.
0. 0. 0. 0.
0. 0. 0. 0.
0. 0. 0. 0.
0. 0. 0. 0.
0. 0. 0. 0.
0. 0. 0. 0.
0. 0. 0. 0.
0. 0. 0. 0.
0. 0. 0. 0.
0. 0. 0. 0.
0. 0. 0. 0.
0. 0. 0. 0.
0. 0. 0. 0.
0. 0. 0. 0.
0. 0. 0. 0.
0. 0. 0. 0.
0. 0. 0. 0.
0. 0. 0. 0.
0. 0. 0. 0.
0. 0. 0. 0.
0. 0. 0. 0.
0. 0. 0. 0.
0. 0. 0. 0.
0. 0. 0. 0.
0. 0. 0. 0.
0. 0. 0. 0.
0. 0. 0. 0.
0. 0. 0. 0.
0. 0. 0. 0.
0. 0. 0. 0.
0. 0. 0. 0.
0. 0. 0. 0.
0. 0. 0. 0.