<UPF version="2.0.1">
<PP_INFO>
NOTE!!!!
This file is trimmed with a mesh size of 600 from the original version.
Trimming performed at 2023-03-31 09:10:04.868032 by trim_upf.py version 0.1.0

This pseudopotential file has been produced using the code
ONCVPSP  (Optimized Norm-Conservinng Vanderbilt PSeudopotential)
scalar-relativistic version 3.3.0 08/16/2017 by D. R. Hamann
The code is available through a link at URL www.mat-simresearch.com.
Documentation with the package provides a full discription of the
input data below.
While it is not required under the terms of the GNU GPL, it is
suggested that you cite D. R. Hamann, Phys. Rev. B 88, 085117 (2013)
in any publication using these pseudopotentials.
<PP_INPUTFILE>
# ATOM AND REFERENCE CONFIGURATION
# atsym  z   nc   nv     iexc    psfile
Na 11.00    1    3       4      upf
#
#   n    l    f        energy (Ha)
1    0    2.00
2    0    2.00
2    1    6.00
3    0    1.00
#
# PSEUDOPOTENTIAL AND OPTIMIZATION
# lmax
1
#
#   l,   rc,      ep,       ncon, nbas, qcut
0   1.20000  -2.08564    4    7   9.00000
1   1.55000  -1.05371    4    7   9.00000
#
# LOCAL POTENTIAL
# lloc, lpopt,  rc(5),   dvloc0
4    5   1.20000      0.00000
#
# VANDERBILT-KLEINMAN-BYLANDER PROJECTORs
# l, nproj, debl
0    2   1.98480
1    2   3.00000
#
# MODEL CORE CHARGE
# icmod, fcfact, rcfact
0   0.00000   0.00000
#
# LOG DERIVATIVE ANALYSIS
# epsh1, epsh2, depsh
-12.00   12.00    0.02
#
# OUTPUT GRID
# rlmax, drl
4.00    0.01
#
# TEST CONFIGURATIONS
# ncnf
0
# nvcnf
#   n    l    f
</PP_INPUTFILE>
</PP_INFO>
<!--                               -->
<!-- END OF HUMAN READABLE SECTION -->
<!--                               -->
<PP_HEADER
generated="Generated using ONCVPSP code by D. R. Hamann"
author="anonymous"
date="171031"
comment=""
element="Na"
pseudo_type="NC"
relativistic="scalar"
is_ultrasoft="F"
is_paw="F"
is_coulomb="F"
has_so="F"
has_wfc="F"
has_gipaw="F"
core_correction="F"
functional="PBE"
z_valence="    9.00"
total_psenergy="  -9.13325303277E+01"
rho_cutoff="   1.99100000000E+01"
l_max="1"
l_local="-1"
mesh_size="   600"
number_of_wfc="3"
number_of_proj="4"/>
<PP_MESH>
<PP_R type="real"  size="600" columns="8">
0.0000    0.0100    0.0200    0.0300    0.0400    0.0500    0.0600    0.0700
0.0800    0.0900    0.1000    0.1100    0.1200    0.1300    0.1400    0.1500
0.1600    0.1700    0.1800    0.1900    0.2000    0.2100    0.2200    0.2300
0.2400    0.2500    0.2600    0.2700    0.2800    0.2900    0.3000    0.3100
0.3200    0.3300    0.3400    0.3500    0.3600    0.3700    0.3800    0.3900
0.4000    0.4100    0.4200    0.4300    0.4400    0.4500    0.4600    0.4700
0.4800    0.4900    0.5000    0.5100    0.5200    0.5300    0.5400    0.5500
0.5600    0.5700    0.5800    0.5900    0.6000    0.6100    0.6200    0.6300
0.6400    0.6500    0.6600    0.6700    0.6800    0.6900    0.7000    0.7100
0.7200    0.7300    0.7400    0.7500    0.7600    0.7700    0.7800    0.7900
0.8000    0.8100    0.8200    0.8300    0.8400    0.8500    0.8600    0.8700
0.8800    0.8900    0.9000    0.9100    0.9200    0.9300    0.9400    0.9500
0.9600    0.9700    0.9800    0.9900    1.0000    1.0100    1.0200    1.0300
1.0400    1.0500    1.0600    1.0700    1.0800    1.0900    1.1000    1.1100
1.1200    1.1300    1.1400    1.1500    1.1600    1.1700    1.1800    1.1900
1.2000    1.2100    1.2200    1.2300    1.2400    1.2500    1.2600    1.2700
1.2800    1.2900    1.3000    1.3100    1.3200    1.3300    1.3400    1.3500
1.3600    1.3700    1.3800    1.3900    1.4000    1.4100    1.4200    1.4300
1.4400    1.4500    1.4600    1.4700    1.4800    1.4900    1.5000    1.5100
1.5200    1.5300    1.5400    1.5500    1.5600    1.5700    1.5800    1.5900
1.6000    1.6100    1.6200    1.6300    1.6400    1.6500    1.6600    1.6700
1.6800    1.6900    1.7000    1.7100    1.7200    1.7300    1.7400    1.7500
1.7600    1.7700    1.7800    1.7900    1.8000    1.8100    1.8200    1.8300
1.8400    1.8500    1.8600    1.8700    1.8800    1.8900    1.9000    1.9100
1.9200    1.9300    1.9400    1.9500    1.9600    1.9700    1.9800    1.9900
2.0000    2.0100    2.0200    2.0300    2.0400    2.0500    2.0600    2.0700
2.0800    2.0900    2.1000    2.1100    2.1200    2.1300    2.1400    2.1500
2.1600    2.1700    2.1800    2.1900    2.2000    2.2100    2.2200    2.2300
2.2400    2.2500    2.2600    2.2700    2.2800    2.2900    2.3000    2.3100
2.3200    2.3300    2.3400    2.3500    2.3600    2.3700    2.3800    2.3900
2.4000    2.4100    2.4200    2.4300    2.4400    2.4500    2.4600    2.4700
2.4800    2.4900    2.5000    2.5100    2.5200    2.5300    2.5400    2.5500
2.5600    2.5700    2.5800    2.5900    2.6000    2.6100    2.6200    2.6300
2.6400    2.6500    2.6600    2.6700    2.6800    2.6900    2.7000    2.7100
2.7200    2.7300    2.7400    2.7500    2.7600    2.7700    2.7800    2.7900
2.8000    2.8100    2.8200    2.8300    2.8400    2.8500    2.8600    2.8700
2.8800    2.8900    2.9000    2.9100    2.9200    2.9300    2.9400    2.9500
2.9600    2.9700    2.9800    2.9900    3.0000    3.0100    3.0200    3.0300
3.0400    3.0500    3.0600    3.0700    3.0800    3.0900    3.1000    3.1100
3.1200    3.1300    3.1400    3.1500    3.1600    3.1700    3.1800    3.1900
3.2000    3.2100    3.2200    3.2300    3.2400    3.2500    3.2600    3.2700
3.2800    3.2900    3.3000    3.3100    3.3200    3.3300    3.3400    3.3500
3.3600    3.3700    3.3800    3.3900    3.4000    3.4100    3.4200    3.4300
3.4400    3.4500    3.4600    3.4700    3.4800    3.4900    3.5000    3.5100
3.5200    3.5300    3.5400    3.5500    3.5600    3.5700    3.5800    3.5900
3.6000    3.6100    3.6200    3.6300    3.6400    3.6500    3.6600    3.6700
3.6800    3.6900    3.7000    3.7100    3.7200    3.7300    3.7400    3.7500
3.7600    3.7700    3.7800    3.7900    3.8000    3.8100    3.8200    3.8300
3.8400    3.8500    3.8600    3.8700    3.8800    3.8900    3.9000    3.9100
3.9200    3.9300    3.9400    3.9500    3.9600    3.9700    3.9800    3.9900
4.0000    4.0100    4.0200    4.0300    4.0400    4.0500    4.0600    4.0700
4.0800    4.0900    4.1000    4.1100    4.1200    4.1300    4.1400    4.1500
4.1600    4.1700    4.1800    4.1900    4.2000    4.2100    4.2200    4.2300
4.2400    4.2500    4.2600    4.2700    4.2800    4.2900    4.3000    4.3100
4.3200    4.3300    4.3400    4.3500    4.3600    4.3700    4.3800    4.3900
4.4000    4.4100    4.4200    4.4300    4.4400    4.4500    4.4600    4.4700
4.4800    4.4900    4.5000    4.5100    4.5200    4.5300    4.5400    4.5500
4.5600    4.5700    4.5800    4.5900    4.6000    4.6100    4.6200    4.6300
4.6400    4.6500    4.6600    4.6700    4.6800    4.6900    4.7000    4.7100
4.7200    4.7300    4.7400    4.7500    4.7600    4.7700    4.7800    4.7900
4.8000    4.8100    4.8200    4.8300    4.8400    4.8500    4.8600    4.8700
4.8800    4.8900    4.9000    4.9100    4.9200    4.9300    4.9400    4.9500
4.9600    4.9700    4.9800    4.9900    5.0000    5.0100    5.0200    5.0300
5.0400    5.0500    5.0600    5.0700    5.0800    5.0900    5.1000    5.1100
5.1200    5.1300    5.1400    5.1500    5.1600    5.1700    5.1800    5.1900
5.2000    5.2100    5.2200    5.2300    5.2400    5.2500    5.2600    5.2700
5.2800    5.2900    5.3000    5.3100    5.3200    5.3300    5.3400    5.3500
5.3600    5.3700    5.3800    5.3900    5.4000    5.4100    5.4200    5.4300
5.4400    5.4500    5.4600    5.4700    5.4800    5.4900    5.5000    5.5100
5.5200    5.5300    5.5400    5.5500    5.5600    5.5700    5.5800    5.5900
5.6000    5.6100    5.6200    5.6300    5.6400    5.6500    5.6600    5.6700
5.6800    5.6900    5.7000    5.7100    5.7200    5.7300    5.7400    5.7500
5.7600    5.7700    5.7800    5.7900    5.8000    5.8100    5.8200    5.8300
5.8400    5.8500    5.8600    5.8700    5.8800    5.8900    5.9000    5.9100
5.9200    5.9300    5.9400    5.9500    5.9600    5.9700    5.9800    5.9900
</PP_R>
<PP_RAB type="real"  size="600" columns="8">
0.0100    0.0100    0.0100    0.0100    0.0100    0.0100    0.0100    0.0100
0.0100    0.0100    0.0100    0.0100    0.0100    0.0100    0.0100    0.0100
0.0100    0.0100    0.0100    0.0100    0.0100    0.0100    0.0100    0.0100
0.0100    0.0100    0.0100    0.0100    0.0100    0.0100    0.0100    0.0100
0.0100    0.0100    0.0100    0.0100    0.0100    0.0100    0.0100    0.0100
0.0100    0.0100    0.0100    0.0100    0.0100    0.0100    0.0100    0.0100
0.0100    0.0100    0.0100    0.0100    0.0100    0.0100    0.0100    0.0100
0.0100    0.0100    0.0100    0.0100    0.0100    0.0100    0.0100    0.0100
0.0100    0.0100    0.0100    0.0100    0.0100    0.0100    0.0100    0.0100
0.0100    0.0100    0.0100    0.0100    0.0100    0.0100    0.0100    0.0100
0.0100    0.0100    0.0100    0.0100    0.0100    0.0100    0.0100    0.0100
0.0100    0.0100    0.0100    0.0100    0.0100    0.0100    0.0100    0.0100
0.0100    0.0100    0.0100    0.0100    0.0100    0.0100    0.0100    0.0100
0.0100    0.0100    0.0100    0.0100    0.0100    0.0100    0.0100    0.0100
0.0100    0.0100    0.0100    0.0100    0.0100    0.0100    0.0100    0.0100
0.0100    0.0100    0.0100    0.0100    0.0100    0.0100    0.0100    0.0100
0.0100    0.0100    0.0100    0.0100    0.0100    0.0100    0.0100    0.0100
0.0100    0.0100    0.0100    0.0100    0.0100    0.0100    0.0100    0.0100
0.0100    0.0100    0.0100    0.0100    0.0100    0.0100    0.0100    0.0100
0.0100    0.0100    0.0100    0.0100    0.0100    0.0100    0.0100    0.0100
0.0100    0.0100    0.0100    0.0100    0.0100    0.0100    0.0100    0.0100
0.0100    0.0100    0.0100    0.0100    0.0100    0.0100    0.0100    0.0100
0.0100    0.0100    0.0100    0.0100    0.0100    0.0100    0.0100    0.0100
0.0100    0.0100    0.0100    0.0100    0.0100    0.0100    0.0100    0.0100
0.0100    0.0100    0.0100    0.0100    0.0100    0.0100    0.0100    0.0100
0.0100    0.0100    0.0100    0.0100    0.0100    0.0100    0.0100    0.0100
0.0100    0.0100    0.0100    0.0100    0.0100    0.0100    0.0100    0.0100
0.0100    0.0100    0.0100    0.0100    0.0100    0.0100    0.0100    0.0100
0.0100    0.0100    0.0100    0.0100    0.0100    0.0100    0.0100    0.0100
0.0100    0.0100    0.0100    0.0100    0.0100    0.0100    0.0100    0.0100
0.0100    0.0100    0.0100    0.0100    0.0100    0.0100    0.0100    0.0100
0.0100    0.0100    0.0100    0.0100    0.0100    0.0100    0.0100    0.0100
0.0100    0.0100    0.0100    0.0100    0.0100    0.0100    0.0100    0.0100
0.0100    0.0100    0.0100    0.0100    0.0100    0.0100    0.0100    0.0100
0.0100    0.0100    0.0100    0.0100    0.0100    0.0100    0.0100    0.0100
0.0100    0.0100    0.0100    0.0100    0.0100    0.0100    0.0100    0.0100
0.0100    0.0100    0.0100    0.0100    0.0100    0.0100    0.0100    0.0100
0.0100    0.0100    0.0100    0.0100    0.0100    0.0100    0.0100    0.0100
0.0100    0.0100    0.0100    0.0100    0.0100    0.0100    0.0100    0.0100
0.0100    0.0100    0.0100    0.0100    0.0100    0.0100    0.0100    0.0100
0.0100    0.0100    0.0100    0.0100    0.0100    0.0100    0.0100    0.0100
0.0100    0.0100    0.0100    0.0100    0.0100    0.0100    0.0100    0.0100
0.0100    0.0100    0.0100    0.0100    0.0100    0.0100    0.0100    0.0100
0.0100    0.0100    0.0100    0.0100    0.0100    0.0100    0.0100    0.0100
0.0100    0.0100    0.0100    0.0100    0.0100    0.0100    0.0100    0.0100
0.0100    0.0100    0.0100    0.0100    0.0100    0.0100    0.0100    0.0100
0.0100    0.0100    0.0100    0.0100    0.0100    0.0100    0.0100    0.0100
0.0100    0.0100    0.0100    0.0100    0.0100    0.0100    0.0100    0.0100
0.0100    0.0100    0.0100    0.0100    0.0100    0.0100    0.0100    0.0100
0.0100    0.0100    0.0100    0.0100    0.0100    0.0100    0.0100    0.0100
0.0100    0.0100    0.0100    0.0100    0.0100    0.0100    0.0100    0.0100
0.0100    0.0100    0.0100    0.0100    0.0100    0.0100    0.0100    0.0100
0.0100    0.0100    0.0100    0.0100    0.0100    0.0100    0.0100    0.0100
0.0100    0.0100    0.0100    0.0100    0.0100    0.0100    0.0100    0.0100
0.0100    0.0100    0.0100    0.0100    0.0100    0.0100    0.0100    0.0100
0.0100    0.0100    0.0100    0.0100    0.0100    0.0100    0.0100    0.0100
0.0100    0.0100    0.0100    0.0100    0.0100    0.0100    0.0100    0.0100
0.0100    0.0100    0.0100    0.0100    0.0100    0.0100    0.0100    0.0100
0.0100    0.0100    0.0100    0.0100    0.0100    0.0100    0.0100    0.0100
0.0100    0.0100    0.0100    0.0100    0.0100    0.0100    0.0100    0.0100
0.0100    0.0100    0.0100    0.0100    0.0100    0.0100    0.0100    0.0100
0.0100    0.0100    0.0100    0.0100    0.0100    0.0100    0.0100    0.0100
0.0100    0.0100    0.0100    0.0100    0.0100    0.0100    0.0100    0.0100
0.0100    0.0100    0.0100    0.0100    0.0100    0.0100    0.0100    0.0100
0.0100    0.0100    0.0100    0.0100    0.0100    0.0100    0.0100    0.0100
0.0100    0.0100    0.0100    0.0100    0.0100    0.0100    0.0100    0.0100
0.0100    0.0100    0.0100    0.0100    0.0100    0.0100    0.0100    0.0100
0.0100    0.0100    0.0100    0.0100    0.0100    0.0100    0.0100    0.0100
0.0100    0.0100    0.0100    0.0100    0.0100    0.0100    0.0100    0.0100
0.0100    0.0100    0.0100    0.0100    0.0100    0.0100    0.0100    0.0100
0.0100    0.0100    0.0100    0.0100    0.0100    0.0100    0.0100    0.0100
0.0100    0.0100    0.0100    0.0100    0.0100    0.0100    0.0100    0.0100
0.0100    0.0100    0.0100    0.0100    0.0100    0.0100    0.0100    0.0100
0.0100    0.0100    0.0100    0.0100    0.0100    0.0100    0.0100    0.0100
0.0100    0.0100    0.0100    0.0100    0.0100    0.0100    0.0100    0.0100
</PP_RAB>
</PP_MESH>
<PP_LOCAL type="real"  size="600" columns="4">
-3.3190294757E+01   -3.3209175166E+01   -3.3256221567E+01   -3.3317465511E+01
-3.3375813201E+01   -3.3418103926E+01   -3.3437310167E+01   -3.3431730508E+01
-3.3403026452E+01   -3.3354411031E+01   -3.3289447873E+01   -3.3211423401E+01
-3.3123103661E+01   -3.3026702034E+01   -3.2923941677E+01   -3.2816147501E+01
-3.2704336135E+01   -3.2589291495E+01   -3.2471623243E+01   -3.2351809704E+01
-3.2230228210E+01   -3.2107175914E+01   -3.1982883649E+01   -3.1857524832E+01
-3.1731220857E+01   -3.1604044036E+01   -3.1476018858E+01   -3.1347122198E+01
-3.1217283044E+01   -3.1086382299E+01   -3.0954253254E+01   -3.0820683328E+01
-3.0685417658E+01   -3.0548165000E+01   -3.0408606249E+01   -3.0266405590E+01
-3.0121223970E+01   -2.9972734206E+01   -2.9820636710E+01   -2.9664674616E+01
-2.9504646971E+01   -2.9340418814E+01   -2.9171927241E+01   -2.8999183013E+01
-2.8822267737E+01   -2.8641327153E+01   -2.8456561414E+01   -2.8268213465E+01
-2.8076556685E+01   -2.7881882828E+01   -2.7684491103E+01   -2.7484678955E+01
-2.7282734845E+01   -2.7078933048E+01   -2.6873530365E+01   -2.6666764456E+01
-2.6458853495E+01   -2.6249996804E+01   -2.6040376145E+01   -2.5830157424E+01
-2.5619492566E+01   -2.5408521413E+01   -2.5197373527E+01   -2.4986169820E+01
-2.4775023982E+01   -2.4564043679E+01   -2.4353331536E+01   -2.4142985902E+01
-2.3933101440E+01   -2.3723769545E+01   -2.3515078627E+01   -2.3307114276E+01
-2.3099959345E+01   -2.2893693950E+01   -2.2688395423E+01   -2.2484138233E+01
-2.2280993873E+01   -2.2079030744E+01   -2.1878314032E+01   -2.1678905597E+01
-2.1480863868E+01   -2.1284243760E+01   -2.1089096622E+01   -2.0895470196E+01
-2.0703408626E+01   -2.0512952481E+01   -2.0324138823E+01   -2.0137001301E+01
-1.9951570284E+01   -1.9767873021E+01   -1.9585933827E+01   -1.9405774297E+01
-1.9227413543E+01   -1.9050868439E+01   -1.8876153881E+01   -1.8703283050E+01
-1.8532267662E+01   -1.8363118224E+01   -1.8195844255E+01   -1.8030454495E+01
-1.7866957079E+01   -1.7705359676E+01   -1.7545669595E+01   -1.7387893839E+01
-1.7232039131E+01   -1.7078111878E+01   -1.6926118110E+01   -1.6776063372E+01
-1.6627952571E+01   -1.6481789807E+01   -1.6337578158E+01   -1.6195319456E+01
-1.6055014035E+01   -1.5916660478E+01   -1.5780255344E+01   -1.5645792909E+01
-1.5513264899E+01   -1.5382660251E+01   -1.5253964835E+01   -1.5127161244E+01
-1.5002228789E+01   -1.4879143534E+01   -1.4757879589E+01   -1.4638410315E+01
-1.4520707253E+01   -1.4404742282E+01   -1.4290488930E+01   -1.4177921283E+01
-1.4067014102E+01   -1.3957742783E+01   -1.3850083262E+01   -1.3744011956E+01
-1.3639505691E+01   -1.3536541629E+01   -1.3435097187E+01   -1.3335149948E+01
-1.3236677562E+01   -1.3139657640E+01   -1.3044067634E+01   -1.2949884716E+01
-1.2857085646E+01   -1.2765646642E+01   -1.2675543257E+01   -1.2586750256E+01
-1.2499241514E+01   -1.2412989935E+01   -1.2327967390E+01   -1.2244144699E+01
-1.2161491616E+01   -1.2079976922E+01   -1.1999568605E+01   -1.1920233699E+01
-1.1841938779E+01   -1.1764649112E+01   -1.1688332170E+01   -1.1612962175E+01
-1.1538522562E+01   -1.1465017774E+01   -1.1392452034E+01   -1.1320803493E+01
-1.1250047718E+01   -1.1180170085E+01   -1.1111155724E+01   -1.1042988256E+01
-1.0975652064E+01   -1.0909132081E+01   -1.0843413567E+01   -1.0778482118E+01
-1.0714323681E+01   -1.0650924532E+01   -1.0588271273E+01   -1.0526350818E+01
-1.0465150385E+01   -1.0404657488E+01   -1.0344859928E+01   -1.0285745785E+01
-1.0227303410E+01   -1.0169521416E+01   -1.0112388675E+01   -1.0055894303E+01
-1.0000027662E+01   -9.9447783477E+00   -9.8901361837E+00   -9.8360912170E+00
-9.7826337106E+00   -9.7297541382E+00   -9.6774431787E+00   -9.6256917099E+00
-9.5744908037E+00   -9.5238317211E+00   -9.4737059074E+00   -9.4241049871E+00
-9.3750207588E+00   -9.3264451915E+00   -9.2783704197E+00   -9.2307887390E+00
-9.1836926029E+00   -9.1370746176E+00   -9.0909275389E+00   -9.0452442684E+00
-9.0000178494E+00   -8.9552414639E+00   -8.9109084287E+00   -8.8670121926E+00
-8.8235463326E+00   -8.7805045510E+00   -8.7378806724E+00   -8.6956686409E+00
-8.6538625167E+00   -8.6124564738E+00   -8.5714447969E+00   -8.5308218790E+00
-8.4905822190E+00   -8.4507204187E+00   -8.4112311807E+00   -8.3721093059E+00
-8.3333496916E+00   -8.2949473285E+00   -8.2568972994E+00   -8.2191947764E+00
-8.1818350192E+00   -8.1448133731E+00   -8.1081252670E+00   -8.0717662115E+00
-8.0357317971E+00   -8.0000176925E+00   -7.9646196427E+00   -7.9295334677E+00
-7.8947550605E+00   -7.8602803855E+00   -7.8261054776E+00   -7.7922264398E+00
-7.7586394425E+00   -7.7253407217E+00   -7.6923265781E+00   -7.6595933750E+00
-7.6271375379E+00   -7.5949555525E+00   -7.5630439640E+00   -7.5313993758E+00
-7.5000184482E+00   -7.4688978971E+00   -7.4380344934E+00   -7.4074250616E+00
-7.3770664787E+00   -7.3469556731E+00   -7.3170896238E+00   -7.2874653591E+00
-7.2580799559E+00   -7.2289305385E+00   -7.2000142776E+00   -7.1713283894E+00
-7.1428701347E+00   -7.1146368180E+00   -7.0866257863E+00   -7.0588344288E+00
-7.0312601753E+00   -7.0039004958E+00   -6.9767528995E+00   -6.9498149341E+00
-6.9230841849E+00   -6.8965582740E+00   -6.8702348597E+00   -6.8441116356E+00
-6.8181863300E+00   -6.7924567052E+00   -6.7669205568E+00   -6.7415757131E+00
-6.7164200344E+00   -6.6914514126E+00   -6.6666677705E+00   -6.6420670612E+00
-6.6176472675E+00   -6.5934064017E+00   -6.5693425046E+00   -6.5454536454E+00
-6.5217379212E+00   -6.4981934562E+00   -6.4748184014E+00   -6.4516109344E+00
-6.4285692586E+00   -6.4056916028E+00   -6.3829762210E+00   -6.3604213918E+00
-6.3380254180E+00   -6.3157866263E+00   -6.2937033666E+00   -6.2717740120E+00
-6.2499969582E+00   -6.2283706230E+00   -6.2068934463E+00   -6.1855638893E+00
-6.1643804343E+00   -6.1433415846E+00   -6.1224458636E+00   -6.1016918151E+00
-6.0810780024E+00   -6.0606030083E+00   -6.0402654347E+00   -6.0200639021E+00
-5.9999970496E+00   -5.9800635344E+00   -5.9602620314E+00   -5.9405912333E+00
-5.9210498498E+00   -5.9016366076E+00   -5.8823502502E+00   -5.8631895374E+00
-5.8441532451E+00   -5.8252401652E+00   -5.8064491051E+00   -5.7877788876E+00
-5.7692283506E+00   -5.7507963468E+00   -5.7324817438E+00   -5.7142834234E+00
-5.6962002814E+00   -5.6782312278E+00   -5.6603751863E+00   -5.6426310940E+00
-5.6249979014E+00   -5.6074745719E+00   -5.5900600821E+00   -5.5727534209E+00
-5.5555535901E+00   -5.5384596033E+00   -5.5214704867E+00   -5.5045852781E+00
-5.4878030272E+00   -5.4711227951E+00   -5.4545436544E+00   -5.4380646889E+00
-5.4216849934E+00   -5.4054036736E+00   -5.3892198459E+00   -5.3731326373E+00
-5.3571411850E+00   -5.3412446368E+00   -5.3254421503E+00   -5.3097328930E+00
-5.2941160424E+00   -5.2785907856E+00   -5.2631563192E+00   -5.2478118490E+00
-5.2325565902E+00   -5.2173897671E+00   -5.2023106129E+00   -5.1873183698E+00
-5.1724122884E+00   -5.1575916282E+00   -5.1428556570E+00   -5.1282036510E+00
-5.1136348945E+00   -5.0991486802E+00   -5.0847443084E+00   -5.0704210876E+00
-5.0561783340E+00   -5.0420153713E+00   -5.0279315309E+00   -5.0139261517E+00
-4.9999985798E+00   -4.9861481687E+00   -4.9723742788E+00   -4.9586762779E+00
-4.9450535404E+00   -4.9315054477E+00   -4.9180313880E+00   -4.9046307563E+00
-4.8913029537E+00   -4.8780473884E+00   -4.8648634745E+00   -4.8517506327E+00
-4.8387082898E+00   -4.8257358788E+00   -4.8128328388E+00   -4.7999986149E+00
-4.7872326579E+00   -4.7745344246E+00   -4.7619033775E+00   -4.7493389849E+00
-4.7368407205E+00   -4.7244080636E+00   -4.7120404991E+00   -4.6997375169E+00
-4.6874986127E+00   -4.6753232870E+00   -4.6632110458E+00   -4.6511614000E+00
-4.6391738657E+00   -4.6272479638E+00   -4.6153832203E+00   -4.6035791659E+00
-4.5918353362E+00   -4.5801512714E+00   -4.5685265165E+00   -4.5569606210E+00
-4.5454531391E+00   -4.5340036293E+00   -4.5226116546E+00   -4.5112767825E+00
-4.4999985847E+00   -4.4887766372E+00   -4.4776105202E+00   -4.4664998181E+00
-4.4554441195E+00   -4.4444430168E+00   -4.4334961067E+00   -4.4226029898E+00
-4.4117632705E+00   -4.4009765571E+00   -4.3902424618E+00   -4.3795606005E+00
-4.3689305928E+00   -4.3583520622E+00   -4.3478246356E+00   -4.3373479436E+00
-4.3269216203E+00   -4.3165453033E+00   -4.3062186338E+00   -4.2959412562E+00
-4.2857128186E+00   -4.2755329721E+00   -4.2654013714E+00   -4.2553176742E+00
-4.2452815417E+00   -4.2352926380E+00   -4.2253506306E+00   -4.2154551901E+00
-4.2056059899E+00   -4.1958027068E+00   -4.1860450204E+00   -4.1763326134E+00
-4.1666651712E+00   -4.1570423824E+00   -4.1474639383E+00   -4.1379295330E+00
-4.1284388636E+00   -4.1189916299E+00   -4.1095875342E+00   -4.1002262819E+00
-4.0909075808E+00   -4.0816311414E+00   -4.0723966769E+00   -4.0632039031E+00
-4.0540525383E+00   -4.0449423032E+00   -4.0358729214E+00   -4.0268441184E+00
-4.0178556228E+00   -4.0089071650E+00   -3.9999984782E+00   -3.9911292979E+00
-3.9822993619E+00   -3.9735084102E+00   -3.9647561853E+00   -3.9560424317E+00
-3.9473668965E+00   -3.9387293287E+00   -3.9301294796E+00   -3.9215671028E+00
-3.9130419537E+00   -3.9045537902E+00   -3.8961023721E+00   -3.8876874614E+00
-3.8793088218E+00   -3.8709662196E+00   -3.8626594226E+00   -3.8543882008E+00
-3.8461523263E+00   -3.8379515729E+00   -3.8297857164E+00   -3.8216545345E+00
-3.8135578069E+00   -3.8054953151E+00   -3.7974668423E+00   -3.7894721737E+00
-3.7815110963E+00   -3.7735833987E+00   -3.7656888715E+00   -3.7578273070E+00
-3.7499984991E+00   -3.7422022435E+00   -3.7344383377E+00   -3.7267065806E+00
-3.7190067730E+00   -3.7113387173E+00   -3.7037022175E+00   -3.6960970792E+00
-3.6885231097E+00   -3.6809801176E+00   -3.6734679133E+00   -3.6659863087E+00
-3.6585351173E+00   -3.6511141539E+00   -3.6437232350E+00   -3.6363621785E+00
-3.6290308038E+00   -3.6217289317E+00   -3.6144563845E+00   -3.6072129858E+00
-3.5999985609E+00   -3.5928129361E+00   -3.5856559394E+00   -3.5785274001E+00
-3.5714271487E+00   -3.5643550172E+00   -3.5573108389E+00   -3.5502944484E+00
-3.5433056815E+00   -3.5363443756E+00   -3.5294103689E+00   -3.5225035013E+00
-3.5156236137E+00   -3.5087705484E+00   -3.5019441488E+00   -3.4951442595E+00
-3.4883707265E+00   -3.4816233968E+00   -3.4749021187E+00   -3.4682067415E+00
-3.4615371158E+00   -3.4548930934E+00   -3.4482745270E+00   -3.4416812708E+00
-3.4351131797E+00   -3.4285701100E+00   -3.4220519189E+00   -3.4155584649E+00
-3.4090896074E+00   -3.4026452069E+00   -3.3962251249E+00   -3.3898292241E+00
-3.3834573680E+00   -3.3771094215E+00   -3.3707852501E+00   -3.3644847205E+00
-3.3582077004E+00   -3.3519540585E+00   -3.3457236643E+00   -3.3395163886E+00
-3.3333321028E+00   -3.3271706795E+00   -3.3210319921E+00   -3.3149159150E+00
-3.3088223236E+00   -3.3027510940E+00   -3.2967021034E+00   -3.2906752298E+00
-3.2846703521E+00   -3.2786873502E+00   -3.2727261047E+00   -3.2667864971E+00
-3.2608684099E+00   -3.2549717263E+00   -3.2490963304E+00   -3.2432421071E+00
-3.2374089422E+00   -3.2315967223E+00   -3.2258053348E+00   -3.2200346678E+00
-3.2142846103E+00   -3.2085550522E+00   -3.2028458841E+00   -3.1971569971E+00
-3.1914882836E+00   -3.1858396363E+00   -3.1802109489E+00   -3.1746021158E+00
-3.1690130322E+00   -3.1634435939E+00   -3.1578936974E+00   -3.1523632402E+00
-3.1468521203E+00   -3.1413602364E+00   -3.1358874880E+00   -3.1304337753E+00
-3.1249989991E+00   -3.1195830609E+00   -3.1141858630E+00   -3.1088073083E+00
-3.1034473004E+00   -3.0981057434E+00   -3.0927825423E+00   -3.0874776026E+00
-3.0821908305E+00   -3.0769221328E+00   -3.0716714171E+00   -3.0664385914E+00
-3.0612235644E+00   -3.0560262454E+00   -3.0508465445E+00   -3.0456843722E+00
-3.0405396396E+00   -3.0354122586E+00   -3.0303021415E+00   -3.0252092012E+00
-3.0201333514E+00   -3.0150745061E+00   -3.0100325799E+00   -3.0050074883E+00
</PP_LOCAL>
<PP_NONLOCAL>
<PP_BETA.1
type="real"
size="600"
columns="4"
index="1"
angular_momentum="0"
cutoff_radius_index=" 160"
cutoff_radius="    1.5900000000E+00" >
2.5264429437E-09    9.2888822410E-02    1.8555666507E-01    2.7778124180E-01
3.6933769278E-01    4.5999739521E-01    5.4952688913E-01    6.3768695373E-01
7.2423186700E-01    8.0890887853E-01    8.9145792152E-01    9.7161158617E-01
1.0490953720E+00    1.1236282319E+00    1.1949234156E+00    1.2626896156E+00
1.3266324109E+00    1.3864560033E+00    1.4418652286E+00    1.4925678280E+00
1.5382769519E+00    1.5787138709E+00    1.6136108578E+00    1.6427142063E+00
1.6657873447E+00    1.6826140010E+00    1.6930013754E+00    1.6967832710E+00
1.6938231362E+00    1.6840169701E+00    1.6672960416E+00    1.6436293774E+00
1.6130259728E+00    1.5755366830E+00    1.5312557563E+00    1.4803219731E+00
1.4229193616E+00    1.3592774618E+00    1.2896711203E+00    1.2144197984E+00
1.1338863883E+00    1.0484755323E+00    9.5863145171E-01    8.6483529588E-01
7.6760202856E-01    6.6747687679E-01    5.6503137188E-01    4.6085901931E-01
3.5557063917E-01    2.4978942439E-01    1.4414576799E-01    3.9271915098E-02
-6.4203501808E-02   -1.6566098312E-01   -2.6449567482E-01   -3.6012280993E-01
-4.5198301452E-01   -5.3954741528E-01   -6.2232248678E-01   -6.9985457928E-01
-7.7173407112E-01   -8.3759909352E-01   -8.9713878066E-01   -9.5009600300E-01
-9.9626954809E-01   -1.0355157194E+00   -1.0677493310E+00   -1.0929440826E+00
-1.1111323085E+00   -1.1224041000E+00   -1.1269058094E+00   -1.1248379529E+00
-1.1164525344E+00   -1.1020498230E+00   -1.0819746207E+00   -1.0566120663E+00
-1.0263830262E+00   -9.9173912726E-01   -9.5315749410E-01   -9.1113525456E-01
-8.6618388195E-01   -8.1882344399E-01   -7.6957682993E-01   -7.1896402770E-01
-6.6749652227E-01   -6.1567188476E-01   -5.6396861965E-01   -5.1284133351E-01
-4.6271628495E-01   -4.1398736999E-01   -3.6701259142E-01   -3.2211105400E-01
-2.7956052065E-01   -2.3959555654E-01   -2.0240628065E-01   -1.6813773564E-01
-1.3688987853E-01   -1.0871818636E-01   -8.3634862210E-02   -6.1610618898E-02
-4.2577009653E-02   -2.6429267347E-02   -1.3029606893E-02   -2.2109387553E-03
6.2190640146E-03    1.2473608113E-02    1.6782198658E-02    1.9385904409E-02
2.0532542109E-02    2.0471853756E-02    1.9450751141E-02    1.7708701098E-02
1.5473323334E-02    1.2956269579E-02    1.0349450245E-02    7.8216689420E-03
5.5157205620E-03    3.5472680555E-03    1.9939406646E-03    9.1329424547E-04
3.8003436684E-04    1.6134067287E-04    1.4586099298E-05   -1.3909426606E-05
3.1003351988E-06    7.4589259484E-07   -5.7725240750E-07    0.0000000000E+00
0.0000000000E+00    0.0000000000E+00    0.0000000000E+00    0.0000000000E+00
0.0000000000E+00    0.0000000000E+00    0.0000000000E+00    0.0000000000E+00
0.0000000000E+00    0.0000000000E+00    0.0000000000E+00    0.0000000000E+00
0.0000000000E+00    0.0000000000E+00    0.0000000000E+00    0.0000000000E+00
0.0000000000E+00    0.0000000000E+00    0.0000000000E+00    0.0000000000E+00
0.0000000000E+00    0.0000000000E+00    0.0000000000E+00    0.0000000000E+00
0.0000000000E+00    0.0000000000E+00    0.0000000000E+00    0.0000000000E+00
0.0000000000E+00    0.0000000000E+00    0.0000000000E+00    0.0000000000E+00
0. 0. 0. 0.
0. 0. 0. 0.
0. 0. 0. 0.
0. 0. 0. 0.
0. 0. 0. 0.
0. 0. 0. 0.
0. 0. 0. 0.
0. 0. 0. 0.
0. 0. 0. 0.
0. 0. 0. 0.
0. 0. 0. 0.
0. 0. 0. 0.
0. 0. 0. 0.
0. 0. 0. 0.
0. 0. 0. 0.
0. 0. 0. 0.
0. 0. 0. 0.
0. 0. 0. 0.
0. 0. 0. 0.
0. 0. 0. 0.
0. 0. 0. 0.
0. 0. 0. 0.
0. 0. 0. 0.
0. 0. 0. 0.
0. 0. 0. 0.
0. 0. 0. 0.
0. 0. 0. 0.
0. 0. 0. 0.
0. 0. 0. 0.
0. 0. 0. 0.
0. 0. 0. 0.
0. 0. 0. 0.
0. 0. 0. 0.
0. 0. 0. 0.
0. 0. 0. 0.
0. 0. 0. 0.
0. 0. 0. 0.
0. 0. 0. 0.
0. 0. 0. 0.
0. 0. 0. 0.
0. 0. 0. 0.
0. 0. 0. 0.
0. 0. 0. 0.
0. 0. 0. 0.
0. 0. 0. 0.
0. 0. 0. 0.
0. 0. 0. 0.
0. 0. 0. 0.
0. 0. 0. 0.
0. 0. 0. 0.
0. 0. 0. 0.
0. 0. 0. 0.
0. 0. 0. 0.
0. 0. 0. 0.
0. 0. 0. 0.
0. 0. 0. 0.
0. 0. 0. 0.
0. 0. 0. 0.
0. 0. 0. 0.
0. 0. 0. 0.
0. 0. 0. 0.
0. 0. 0. 0.
0. 0. 0. 0.
0. 0. 0. 0.
0. 0. 0. 0.
0. 0. 0. 0.
0. 0. 0. 0.
0. 0. 0. 0.
0. 0. 0. 0.
0. 0. 0. 0.
0. 0. 0. 0.
0. 0. 0. 0.
0. 0. 0. 0.
0. 0. 0. 0.
0. 0. 0. 0.
0. 0. 0. 0.
0. 0. 0. 0.
0. 0. 0. 0.
0. 0. 0. 0.
0. 0. 0. 0.
0. 0. 0. 0.
0. 0. 0. 0.
0. 0. 0. 0.
0. 0. 0. 0.
0. 0. 0. 0.
0. 0. 0. 0.
0. 0. 0. 0.
0. 0. 0. 0.
0. 0. 0. 0.
0. 0. 0. 0.
0. 0. 0. 0.
0. 0. 0. 0.
0. 0. 0. 0.
0. 0. 0. 0.
0. 0. 0. 0.
0. 0. 0. 0.
0. 0. 0. 0.
0. 0. 0. 0.