<UPF version="2.0.1">
<PP_INFO>
NOTE!!!!
This file is trimmed with a mesh size of 600 from the original version.
Trimming performed at 2023-03-31 09:10:05.112941 by trim_upf.py version 0.1.0

This pseudopotential file has been produced using the code
ONCVPSP  (Optimized Norm-Conservinng Vanderbilt PSeudopotential)
scalar-relativistic version 3.3.0 08/16/2017 by D. R. Hamann
The code is available through a link at URL www.mat-simresearch.com.
Documentation with the package provides a full discription of the
input data below.
While it is not required under the terms of the GNU GPL, it is
suggested that you cite D. R. Hamann, Phys. Rev. B 88, 085117 (2013)
in any publication using these pseudopotentials.
<PP_INPUTFILE>
# ATOM AND REFERENCE CONFIGURATION
# atsym  z   nc   nv     iexc    psfile
Nb 41.00    6    4       4      upf
#
#   n    l    f        energy (Ha)
1    0    2.00
2    0    2.00
2    1    6.00
3    0    2.00
3    1    6.00
3    2   10.00
4    0    2.00
4    1    6.00
4    2    4.00
5    0    1.00
#
# PSEUDOPOTENTIAL AND OPTIMIZATION
# lmax
2
#
#   l,   rc,      ep,       ncon, nbas, qcut
0   1.50000  -2.14594    4    7   7.80000
1   1.40000  -1.26863    4    7   9.00000
2   1.40000  -0.11173    4    7   9.20000
#
# LOCAL POTENTIAL
# lloc, lpopt,  rc(5),   dvloc0
4    5   1.25000      0.00000
#
# VANDERBILT-KLEINMAN-BYLANDER PROJECTORs
# l, nproj, debl
0    2   1.99960
1    2   1.80000
2    2   1.50000
#
# MODEL CORE CHARGE
# icmod, fcfact, rcfact
3   5.00000   1.50000
#
# LOG DERIVATIVE ANALYSIS
# epsh1, epsh2, depsh
-12.00   12.00    0.02
#
# OUTPUT GRID
# rlmax, drl
6.00    0.01
#
# TEST CONFIGURATIONS
# ncnf
0
# nvcnf
#   n    l    f
</PP_INPUTFILE>
</PP_INFO>
<!--                               -->
<!-- END OF HUMAN READABLE SECTION -->
<!--                               -->
<PP_HEADER
generated="Generated using ONCVPSP code by D. R. Hamann"
author="anonymous"
date="171031"
comment=""
element="Nb"
pseudo_type="NC"
relativistic="scalar"
is_ultrasoft="F"
is_paw="F"
is_coulomb="F"
has_so="F"
has_wfc="F"
has_gipaw="F"
core_correction="T"
functional="PBE"
z_valence="   13.00"
total_psenergy="  -1.14150607292E+02"
rho_cutoff="   1.67900000000E+01"
l_max="2"
l_local="-1"
mesh_size="   600"
number_of_wfc="4"
number_of_proj="6"/>
<PP_MESH>
<PP_R type="real"  size="600" columns="8">
0.0000    0.0100    0.0200    0.0300    0.0400    0.0500    0.0600    0.0700
0.0800    0.0900    0.1000    0.1100    0.1200    0.1300    0.1400    0.1500
0.1600    0.1700    0.1800    0.1900    0.2000    0.2100    0.2200    0.2300
0.2400    0.2500    0.2600    0.2700    0.2800    0.2900    0.3000    0.3100
0.3200    0.3300    0.3400    0.3500    0.3600    0.3700    0.3800    0.3900
0.4000    0.4100    0.4200    0.4300    0.4400    0.4500    0.4600    0.4700
0.4800    0.4900    0.5000    0.5100    0.5200    0.5300    0.5400    0.5500
0.5600    0.5700    0.5800    0.5900    0.6000    0.6100    0.6200    0.6300
0.6400    0.6500    0.6600    0.6700    0.6800    0.6900    0.7000    0.7100
0.7200    0.7300    0.7400    0.7500    0.7600    0.7700    0.7800    0.7900
0.8000    0.8100    0.8200    0.8300    0.8400    0.8500    0.8600    0.8700
0.8800    0.8900    0.9000    0.9100    0.9200    0.9300    0.9400    0.9500
0.9600    0.9700    0.9800    0.9900    1.0000    1.0100    1.0200    1.0300
1.0400    1.0500    1.0600    1.0700    1.0800    1.0900    1.1000    1.1100
1.1200    1.1300    1.1400    1.1500    1.1600    1.1700    1.1800    1.1900
1.2000    1.2100    1.2200    1.2300    1.2400    1.2500    1.2600    1.2700
1.2800    1.2900    1.3000    1.3100    1.3200    1.3300    1.3400    1.3500
1.3600    1.3700    1.3800    1.3900    1.4000    1.4100    1.4200    1.4300
1.4400    1.4500    1.4600    1.4700    1.4800    1.4900    1.5000    1.5100
1.5200    1.5300    1.5400    1.5500    1.5600    1.5700    1.5800    1.5900
1.6000    1.6100    1.6200    1.6300    1.6400    1.6500    1.6600    1.6700
1.6800    1.6900    1.7000    1.7100    1.7200    1.7300    1.7400    1.7500
1.7600    1.7700    1.7800    1.7900    1.8000    1.8100    1.8200    1.8300
1.8400    1.8500    1.8600    1.8700    1.8800    1.8900    1.9000    1.9100
1.9200    1.9300    1.9400    1.9500    1.9600    1.9700    1.9800    1.9900
2.0000    2.0100    2.0200    2.0300    2.0400    2.0500    2.0600    2.0700
2.0800    2.0900    2.1000    2.1100    2.1200    2.1300    2.1400    2.1500
2.1600    2.1700    2.1800    2.1900    2.2000    2.2100    2.2200    2.2300
2.2400    2.2500    2.2600    2.2700    2.2800    2.2900    2.3000    2.3100
2.3200    2.3300    2.3400    2.3500    2.3600    2.3700    2.3800    2.3900
2.4000    2.4100    2.4200    2.4300    2.4400    2.4500    2.4600    2.4700
2.4800    2.4900    2.5000    2.5100    2.5200    2.5300    2.5400    2.5500
2.5600    2.5700    2.5800    2.5900    2.6000    2.6100    2.6200    2.6300
2.6400    2.6500    2.6600    2.6700    2.6800    2.6900    2.7000    2.7100
2.7200    2.7300    2.7400    2.7500    2.7600    2.7700    2.7800    2.7900
2.8000    2.8100    2.8200    2.8300    2.8400    2.8500    2.8600    2.8700
2.8800    2.8900    2.9000    2.9100    2.9200    2.9300    2.9400    2.9500
2.9600    2.9700    2.9800    2.9900    3.0000    3.0100    3.0200    3.0300
3.0400    3.0500    3.0600    3.0700    3.0800    3.0900    3.1000    3.1100
3.1200    3.1300    3.1400    3.1500    3.1600    3.1700    3.1800    3.1900
3.2000    3.2100    3.2200    3.2300    3.2400    3.2500    3.2600    3.2700
3.2800    3.2900    3.3000    3.3100    3.3200    3.3300    3.3400    3.3500
3.3600    3.3700    3.3800    3.3900    3.4000    3.4100    3.4200    3.4300
3.4400    3.4500    3.4600    3.4700    3.4800    3.4900    3.5000    3.5100
3.5200    3.5300    3.5400    3.5500    3.5600    3.5700    3.5800    3.5900
3.6000    3.6100    3.6200    3.6300    3.6400    3.6500    3.6600    3.6700
3.6800    3.6900    3.7000    3.7100    3.7200    3.7300    3.7400    3.7500
3.7600    3.7700    3.7800    3.7900    3.8000    3.8100    3.8200    3.8300
3.8400    3.8500    3.8600    3.8700    3.8800    3.8900    3.9000    3.9100
3.9200    3.9300    3.9400    3.9500    3.9600    3.9700    3.9800    3.9900
4.0000    4.0100    4.0200    4.0300    4.0400    4.0500    4.0600    4.0700
4.0800    4.0900    4.1000    4.1100    4.1200    4.1300    4.1400    4.1500
4.1600    4.1700    4.1800    4.1900    4.2000    4.2100    4.2200    4.2300
4.2400    4.2500    4.2600    4.2700    4.2800    4.2900    4.3000    4.3100
4.3200    4.3300    4.3400    4.3500    4.3600    4.3700    4.3800    4.3900
4.4000    4.4100    4.4200    4.4300    4.4400    4.4500    4.4600    4.4700
4.4800    4.4900    4.5000    4.5100    4.5200    4.5300    4.5400    4.5500
4.5600    4.5700    4.5800    4.5900    4.6000    4.6100    4.6200    4.6300
4.6400    4.6500    4.6600    4.6700    4.6800    4.6900    4.7000    4.7100
4.7200    4.7300    4.7400    4.7500    4.7600    4.7700    4.7800    4.7900
4.8000    4.8100    4.8200    4.8300    4.8400    4.8500    4.8600    4.8700
4.8800    4.8900    4.9000    4.9100    4.9200    4.9300    4.9400    4.9500
4.9600    4.9700    4.9800    4.9900    5.0000    5.0100    5.0200    5.0300
5.0400    5.0500    5.0600    5.0700    5.0800    5.0900    5.1000    5.1100
5.1200    5.1300    5.1400    5.1500    5.1600    5.1700    5.1800    5.1900
5.2000    5.2100    5.2200    5.2300    5.2400    5.2500    5.2600    5.2700
5.2800    5.2900    5.3000    5.3100    5.3200    5.3300    5.3400    5.3500
5.3600    5.3700    5.3800    5.3900    5.4000    5.4100    5.4200    5.4300
5.4400    5.4500    5.4600    5.4700    5.4800    5.4900    5.5000    5.5100
5.5200    5.5300    5.5400    5.5500    5.5600    5.5700    5.5800    5.5900
5.6000    5.6100    5.6200    5.6300    5.6400    5.6500    5.6600    5.6700
5.6800    5.6900    5.7000    5.7100    5.7200    5.7300    5.7400    5.7500
5.7600    5.7700    5.7800    5.7900    5.8000    5.8100    5.8200    5.8300
5.8400    5.8500    5.8600    5.8700    5.8800    5.8900    5.9000    5.9100
5.9200    5.9300    5.9400    5.9500    5.9600    5.9700    5.9800    5.9900
</PP_R>
<PP_RAB type="real"  size="600" columns="8">
0.0100    0.0100    0.0100    0.0100    0.0100    0.0100    0.0100    0.0100
0.0100    0.0100    0.0100    0.0100    0.0100    0.0100    0.0100    0.0100
0.0100    0.0100    0.0100    0.0100    0.0100    0.0100    0.0100    0.0100
0.0100    0.0100    0.0100    0.0100    0.0100    0.0100    0.0100    0.0100
0.0100    0.0100    0.0100    0.0100    0.0100    0.0100    0.0100    0.0100
0.0100    0.0100    0.0100    0.0100    0.0100    0.0100    0.0100    0.0100
0.0100    0.0100    0.0100    0.0100    0.0100    0.0100    0.0100    0.0100
0.0100    0.0100    0.0100    0.0100    0.0100    0.0100    0.0100    0.0100
0.0100    0.0100    0.0100    0.0100    0.0100    0.0100    0.0100    0.0100
0.0100    0.0100    0.0100    0.0100    0.0100    0.0100    0.0100    0.0100
0.0100    0.0100    0.0100    0.0100    0.0100    0.0100    0.0100    0.0100
0.0100    0.0100    0.0100    0.0100    0.0100    0.0100    0.0100    0.0100
0.0100    0.0100    0.0100    0.0100    0.0100    0.0100    0.0100    0.0100
0.0100    0.0100    0.0100    0.0100    0.0100    0.0100    0.0100    0.0100
0.0100    0.0100    0.0100    0.0100    0.0100    0.0100    0.0100    0.0100
0.0100    0.0100    0.0100    0.0100    0.0100    0.0100    0.0100    0.0100
0.0100    0.0100    0.0100    0.0100    0.0100    0.0100    0.0100    0.0100
0.0100    0.0100    0.0100    0.0100    0.0100    0.0100    0.0100    0.0100
0.0100    0.0100    0.0100    0.0100    0.0100    0.0100    0.0100    0.0100
0.0100    0.0100    0.0100    0.0100    0.0100    0.0100    0.0100    0.0100
0.0100    0.0100    0.0100    0.0100    0.0100    0.0100    0.0100    0.0100
0.0100    0.0100    0.0100    0.0100    0.0100    0.0100    0.0100    0.0100
0.0100    0.0100    0.0100    0.0100    0.0100    0.0100    0.0100    0.0100
0.0100    0.0100    0.0100    0.0100    0.0100    0.0100    0.0100    0.0100
0.0100    0.0100    0.0100    0.0100    0.0100    0.0100    0.0100    0.0100
0.0100    0.0100    0.0100    0.0100    0.0100    0.0100    0.0100    0.0100
0.0100    0.0100    0.0100    0.0100    0.0100    0.0100    0.0100    0.0100
0.0100    0.0100    0.0100    0.0100    0.0100    0.0100    0.0100    0.0100
0.0100    0.0100    0.0100    0.0100    0.0100    0.0100    0.0100    0.0100
0.0100    0.0100    0.0100    0.0100    0.0100    0.0100    0.0100    0.0100
0.0100    0.0100    0.0100    0.0100    0.0100    0.0100    0.0100    0.0100
0.0100    0.0100    0.0100    0.0100    0.0100    0.0100    0.0100    0.0100
0.0100    0.0100    0.0100    0.0100    0.0100    0.0100    0.0100    0.0100
0.0100    0.0100    0.0100    0.0100    0.0100    0.0100    0.0100    0.0100
0.0100    0.0100    0.0100    0.0100    0.0100    0.0100    0.0100    0.0100
0.0100    0.0100    0.0100    0.0100    0.0100    0.0100    0.0100    0.0100
0.0100    0.0100    0.0100    0.0100    0.0100    0.0100    0.0100    0.0100
0.0100    0.0100    0.0100    0.0100    0.0100    0.0100    0.0100    0.0100
0.0100    0.0100    0.0100    0.0100    0.0100    0.0100    0.0100    0.0100
0.0100    0.0100    0.0100    0.0100    0.0100    0.0100    0.0100    0.0100
0.0100    0.0100    0.0100    0.0100    0.0100    0.0100    0.0100    0.0100
0.0100    0.0100    0.0100    0.0100    0.0100    0.0100    0.0100    0.0100
0.0100    0.0100    0.0100    0.0100    0.0100    0.0100    0.0100    0.0100
0.0100    0.0100    0.0100    0.0100    0.0100    0.0100    0.0100    0.0100
0.0100    0.0100    0.0100    0.0100    0.0100    0.0100    0.0100    0.0100
0.0100    0.0100    0.0100    0.0100    0.0100    0.0100    0.0100    0.0100
0.0100    0.0100    0.0100    0.0100    0.0100    0.0100    0.0100    0.0100
0.0100    0.0100    0.0100    0.0100    0.0100    0.0100    0.0100    0.0100
0.0100    0.0100    0.0100    0.0100    0.0100    0.0100    0.0100    0.0100
0.0100    0.0100    0.0100    0.0100    0.0100    0.0100    0.0100    0.0100
0.0100    0.0100    0.0100    0.0100    0.0100    0.0100    0.0100    0.0100
0.0100    0.0100    0.0100    0.0100    0.0100    0.0100    0.0100    0.0100
0.0100    0.0100    0.0100    0.0100    0.0100    0.0100    0.0100    0.0100
0.0100    0.0100    0.0100    0.0100    0.0100    0.0100    0.0100    0.0100
0.0100    0.0100    0.0100    0.0100    0.0100    0.0100    0.0100    0.0100
0.0100    0.0100    0.0100    0.0100    0.0100    0.0100    0.0100    0.0100
0.0100    0.0100    0.0100    0.0100    0.0100    0.0100    0.0100    0.0100
0.0100    0.0100    0.0100    0.0100    0.0100    0.0100    0.0100    0.0100
0.0100    0.0100    0.0100    0.0100    0.0100    0.0100    0.0100    0.0100
0.0100    0.0100    0.0100    0.0100    0.0100    0.0100    0.0100    0.0100
0.0100    0.0100    0.0100    0.0100    0.0100    0.0100    0.0100    0.0100
0.0100    0.0100    0.0100    0.0100    0.0100    0.0100    0.0100    0.0100
0.0100    0.0100    0.0100    0.0100    0.0100    0.0100    0.0100    0.0100
0.0100    0.0100    0.0100    0.0100    0.0100    0.0100    0.0100    0.0100
0.0100    0.0100    0.0100    0.0100    0.0100    0.0100    0.0100    0.0100
0.0100    0.0100    0.0100    0.0100    0.0100    0.0100    0.0100    0.0100
0.0100    0.0100    0.0100    0.0100    0.0100    0.0100    0.0100    0.0100
0.0100    0.0100    0.0100    0.0100    0.0100    0.0100    0.0100    0.0100
0.0100    0.0100    0.0100    0.0100    0.0100    0.0100    0.0100    0.0100
0.0100    0.0100    0.0100    0.0100    0.0100    0.0100    0.0100    0.0100
0.0100    0.0100    0.0100    0.0100    0.0100    0.0100    0.0100    0.0100
0.0100    0.0100    0.0100    0.0100    0.0100    0.0100    0.0100    0.0100
0.0100    0.0100    0.0100    0.0100    0.0100    0.0100    0.0100    0.0100
0.0100    0.0100    0.0100    0.0100    0.0100    0.0100    0.0100    0.0100
0.0100    0.0100    0.0100    0.0100    0.0100    0.0100    0.0100    0.0100
</PP_RAB>
</PP_MESH>
<PP_LOCAL type="real"  size="600" columns="4">
-4.3166242295E+01   -4.3163820065E+01   -4.3156554186E+01   -4.3144448252E+01
-4.3127508143E+01   -4.3105742037E+01   -4.3079160388E+01   -4.3047775892E+01
-4.3011603440E+01   -4.2970660058E+01   -4.2924964854E+01   -4.2874538945E+01
-4.2819405385E+01   -4.2759589090E+01   -4.2695116761E+01   -4.2626016795E+01
-4.2552319207E+01   -4.2474055543E+01   -4.2391258797E+01   -4.2303963332E+01
-4.2212204794E+01   -4.2116020041E+01   -4.2015447069E+01   -4.1910524946E+01
-4.1801293749E+01   -4.1687794511E+01   -4.1570069173E+01   -4.1448160543E+01
-4.1322112268E+01   -4.1191968808E+01   -4.1057775421E+01   -4.0919578162E+01
-4.0777423883E+01   -4.0631360248E+01   -4.0481435753E+01   -4.0327699758E+01
-4.0170202522E+01   -4.0008995252E+01   -3.9844130153E+01   -3.9675660485E+01
-3.9503640629E+01   -3.9328126152E+01   -3.9149173875E+01   -3.8966841949E+01
-3.8781189921E+01   -3.8592278810E+01   -3.8400171173E+01   -3.8204931170E+01
-3.8006624627E+01   -3.7805319091E+01   -3.7601083879E+01   -3.7393990118E+01
-3.7184110783E+01   -3.6971520720E+01   -3.6756296663E+01   -3.6538517242E+01
-3.6318262988E+01   -3.6095616319E+01   -3.5870661528E+01   -3.5643484756E+01
-3.5414173971E+01   -3.5182818922E+01   -3.4949511111E+01   -3.4714343741E+01
-3.4477411674E+01   -3.4238811380E+01   -3.3998640887E+01   -3.3756999730E+01
-3.3513988892E+01   -3.3269710756E+01   -3.3024269045E+01   -3.2777768765E+01
-3.2530316147E+01   -3.2282018584E+01   -3.2032984566E+01   -3.1783323606E+01
-3.1533146172E+01   -3.1282563599E+01   -3.1031687999E+01   -3.0780632166E+01
-3.0529509466E+01   -3.0278433714E+01   -3.0027519047E+01   -2.9776879783E+01
-2.9526630260E+01   -2.9276884672E+01   -2.9027756888E+01   -2.8779360263E+01
-2.8531807432E+01   -2.8285210102E+01   -2.8039678829E+01   -2.7795322789E+01
-2.7552249547E+01   -2.7310564821E+01   -2.7070372236E+01   -2.6831773089E+01
-2.6594866108E+01   -2.6359747215E+01   -2.6126509292E+01   -2.5895241954E+01
-2.5666031327E+01   -2.5438959834E+01   -2.5214105989E+01   -2.4991544198E+01
-2.4771344570E+01   -2.4553572737E+01   -2.4338289684E+01   -2.4125551588E+01
-2.3915409662E+01   -2.3707910014E+01   -2.3503093509E+01   -2.3300995642E+01
-2.3101646415E+01   -2.2905070225E+01   -2.2711285754E+01   -2.2520305868E+01
-2.2332137517E+01   -2.2146781644E+01   -2.1964233089E+01   -2.1784480511E+01
-2.1607506291E+01   -2.1433286460E+01   -2.1261790602E+01   -2.1092981788E+01
-2.0926816449E+01   -2.0763244501E+01   -2.0602208674E+01   -2.0443645257E+01
-2.0287487694E+01   -2.0133669941E+01   -1.9982128711E+01   -1.9832802647E+01
-1.9685632441E+01   -1.9540560801E+01   -1.9397532432E+01   -1.9256494009E+01
-1.9117394203E+01   -1.8980183501E+01   -1.8844814316E+01   -1.8711240621E+01
-1.8579420244E+01   -1.8449316484E+01   -1.8320898798E+01   -1.8194140087E+01
-1.8069008792E+01   -1.7945470895E+01   -1.7823492138E+01   -1.7703041025E+01
-1.7584090052E+01   -1.7466611404E+01   -1.7350578067E+01   -1.7235966366E+01
-1.7122755711E+01   -1.7010929530E+01   -1.6900469242E+01   -1.6791351347E+01
-1.6683553623E+01   -1.6577056284E+01   -1.6471839746E+01   -1.6367884798E+01
-1.6265172889E+01   -1.6163685998E+01   -1.6063406568E+01   -1.5964317473E+01
-1.5866401988E+01   -1.5769643750E+01   -1.5674026723E+01   -1.5579535162E+01
-1.5486153587E+01   -1.5393866750E+01   -1.5302659609E+01   -1.5212517303E+01
-1.5123425132E+01   -1.5035368533E+01   -1.4948333064E+01   -1.4862304388E+01
-1.4777268259E+01   -1.4693210513E+01   -1.4610117056E+01   -1.4527973863E+01
-1.4446766968E+01   -1.4366482463E+01   -1.4287106499E+01   -1.4208625289E+01
-1.4131025106E+01   -1.4054292290E+01   -1.3978413257E+01   -1.3903374498E+01
-1.3829162594E+01   -1.3755764224E+01   -1.3683166167E+01   -1.3611355321E+01
-1.3540318706E+01   -1.3470043478E+01   -1.3400516935E+01   -1.3331726532E+01
-1.3263659883E+01   -1.3196304777E+01   -1.3129649182E+01   -1.3063681252E+01
-1.2998389340E+01   -1.2933761996E+01   -1.2869787978E+01   -1.2806456256E+01
-1.2743756016E+01   -1.2681676662E+01   -1.2620207817E+01   -1.2559339332E+01
-1.2499061279E+01   -1.2439363955E+01   -1.2380237885E+01   -1.2321673816E+01
-1.2263662720E+01   -1.2206195790E+01   -1.2149264443E+01   -1.2092860312E+01
-1.2036975247E+01   -1.1981601315E+01   -1.1926730790E+01   -1.1872356156E+01
-1.1818470104E+01   -1.1765065523E+01   -1.1712135503E+01   -1.1659673326E+01
-1.1607672464E+01   -1.1556126576E+01   -1.1505029499E+01   -1.1454375249E+01
-1.1404158011E+01   -1.1354372136E+01   -1.1305012134E+01   -1.1256072669E+01
-1.1207548553E+01   -1.1159434737E+01   -1.1111726308E+01   -1.1064418479E+01
-1.1017506585E+01   -1.0970986072E+01   -1.0924852491E+01   -1.0879101495E+01
-1.0833728823E+01   -1.0788730302E+01   -1.0744101832E+01   -1.0699839386E+01
-1.0655938996E+01   -1.0612396754E+01   -1.0569208800E+01   -1.0526371319E+01
-1.0483880535E+01   -1.0441732706E+01   -1.0399924120E+01   -1.0358451092E+01
-1.0317309957E+01   -1.0276497070E+01   -1.0236008805E+01   -1.0195841550E+01
-1.0155991705E+01   -1.0116455687E+01   -1.0077229923E+01   -1.0038310854E+01
-9.9996949342E+00   -9.9613786326E+00   -9.9233584338E+00   -9.8856308402E+00
-9.8481923738E+00   -9.8110395780E+00   -9.7741690209E+00   -9.7375772971E+00
-9.7012610307E+00   -9.6652168784E+00   -9.6294415319E+00   -9.5939317207E+00
-9.5586842155E+00   -9.5236958300E+00   -9.4889634244E+00   -9.4544839071E+00
-9.4202542373E+00   -9.3862714272E+00   -9.3525325434E+00   -9.3190347090E+00
-9.2857751046E+00   -9.2527509694E+00   -9.2199596020E+00   -9.1873983610E+00
-9.1550646652E+00   -9.1229559930E+00   -9.0910698829E+00   -9.0594039321E+00
-9.0279557960E+00   -8.9967231867E+00   -8.9657038720E+00   -8.9348956733E+00
-8.9042964641E+00   -8.8739041679E+00   -8.8437167558E+00   -8.8137322447E+00
-8.7839486943E+00   -8.7543642050E+00   -8.7249769152E+00   -8.6957849989E+00
-8.6667866627E+00   -8.6379801435E+00   -8.6093637062E+00   -8.5809356407E+00
-8.5526942599E+00   -8.5246378974E+00   -8.4967649051E+00   -8.4690736514E+00
-8.4415625191E+00   -8.4142299040E+00   -8.3870742132E+00   -8.3600938633E+00
-8.3332872799E+00   -8.3066528964E+00   -8.2801891529E+00   -8.2538944955E+00
-8.2277673763E+00   -8.2018062528E+00   -8.1760095879E+00   -8.1503758496E+00
-8.1249035116E+00   -8.0995910536E+00   -8.0744369614E+00   -8.0494397278E+00
-8.0245978529E+00   -7.9999098454E+00   -7.9753742229E+00   -7.9509895130E+00
-7.9267542543E+00   -7.9026669971E+00   -7.8787263045E+00   -7.8549307536E+00
-7.8312789359E+00   -7.8077694588E+00   -7.7844009460E+00   -7.7611720387E+00
-7.7380813952E+00   -7.7151276940E+00   -7.6923096350E+00   -7.6696259363E+00
-7.6470753564E+00   -7.6246566481E+00   -7.6023685461E+00   -7.5802098412E+00
-7.5581792720E+00   -7.5362756905E+00   -7.5144982513E+00   -7.4928459479E+00
-7.4713178518E+00   -7.4499130036E+00   -7.4286295245E+00   -7.4074659019E+00
-7.3864206533E+00   -7.3654921303E+00   -7.3446798578E+00   -7.3239831739E+00
-7.3034015987E+00   -7.2829345555E+00   -7.2625820799E+00   -7.2423440666E+00
-7.2222202526E+00   -7.2022107547E+00   -7.1823144039E+00   -7.1625292977E+00
-7.1428538089E+00   -7.1232860309E+00   -7.1038240549E+00   -7.0844676421E+00
-7.0652160100E+00   -7.0460684889E+00   -7.0270248446E+00   -7.0080839783E+00
-6.9892450146E+00   -6.9705071180E+00   -6.9518694057E+00   -6.9333310449E+00
-6.9148912903E+00   -6.8965493574E+00   -6.8783044707E+00   -6.8601558674E+00
-6.8421027837E+00   -6.8241444674E+00   -6.8062801744E+00   -6.7885091680E+00
-6.7708307196E+00   -6.7532441078E+00   -6.7357486189E+00   -6.7183435466E+00
-6.7010281917E+00   -6.6838018622E+00   -6.6666638735E+00   -6.6496135476E+00
-6.6326502137E+00   -6.6157732078E+00   -6.5989818724E+00   -6.5822755569E+00
-6.5656536173E+00   -6.5491154159E+00   -6.5326603215E+00   -6.5162877093E+00
-6.4999969607E+00   -6.4837874631E+00   -6.4676586103E+00   -6.4516098019E+00
-6.4356404435E+00   -6.4197499466E+00   -6.4039377285E+00   -6.3882032122E+00
-6.3725458263E+00   -6.3569650051E+00   -6.3414601883E+00   -6.3260308212E+00
-6.3106763544E+00   -6.2953962439E+00   -6.2801899507E+00   -6.2650569413E+00
-6.2499966872E+00   -6.2350086650E+00   -6.2200923562E+00   -6.2052472475E+00
-6.1904728301E+00   -6.1757686005E+00   -6.1611340596E+00   -6.1465687131E+00
-6.1320720715E+00   -6.1176436499E+00   -6.1032829677E+00   -6.0889895491E+00
-6.0747629226E+00   -6.0606026211E+00   -6.0465081819E+00   -6.0324791466E+00
-6.0185150609E+00   -6.0046154748E+00   -5.9907799426E+00   -5.9770080224E+00
-5.9632992766E+00   -5.9496532714E+00   -5.9360695771E+00   -5.9225477680E+00
-5.9090874220E+00   -5.8956881211E+00   -5.8823494509E+00   -5.8690710009E+00
-5.8558523640E+00   -5.8426931372E+00   -5.8295929207E+00   -5.8165513186E+00
-5.8035679383E+00   -5.7906423908E+00   -5.7777742906E+00   -5.7649632555E+00
-5.7522089068E+00   -5.7395108690E+00   -5.7268687701E+00   -5.7142822412E+00
-5.7017509168E+00   -5.6892744344E+00   -5.6768524349E+00   -5.6644845621E+00
-5.6521704630E+00   -5.6399097876E+00   -5.6277021892E+00   -5.6155473237E+00
-5.6034448502E+00   -5.5913944307E+00   -5.5793957300E+00   -5.5674484160E+00
-5.5555521593E+00   -5.5437066332E+00   -5.5319115139E+00   -5.5201664803E+00
-5.5084712142E+00   -5.4968253999E+00   -5.4852287243E+00   -5.4736808771E+00
-5.4621815506E+00   -5.4507304396E+00   -5.4393272415E+00   -5.4279716562E+00
-5.4166633862E+00   -5.4054021362E+00   -5.3941876138E+00   -5.3830195285E+00
-5.3718975927E+00   -5.3608215207E+00   -5.3497910296E+00   -5.3388058385E+00
-5.3278656690E+00   -5.3169702447E+00   -5.3061192919E+00   -5.2953125387E+00
-5.2845497156E+00   -5.2738305553E+00   -5.2631547926E+00   -5.2525221646E+00
-5.2419324103E+00   -5.2313852710E+00   -5.2208804898E+00   -5.2104178122E+00
-5.1999969855E+00   -5.1896177591E+00   -5.1792798844E+00   -5.1689831147E+00
-5.1587272055E+00   -5.1485119139E+00   -5.1383369991E+00   -5.1282022222E+00
-5.1181073462E+00   -5.1080521359E+00   -5.0980363579E+00   -5.0880597808E+00
-5.0781221748E+00   -5.0682233121E+00   -5.0583629665E+00   -5.0485409136E+00
-5.0387569308E+00   -5.0290107972E+00   -5.0193022936E+00   -5.0096312025E+00
-4.9999973080E+00   -4.9904003959E+00   -4.9808402537E+00   -4.9713166704E+00
-4.9618294368E+00   -4.9523783451E+00   -4.9429631892E+00   -4.9335837646E+00
-4.9242398681E+00   -4.9149312983E+00   -4.9056578553E+00   -4.8964193406E+00
-4.8872155572E+00   -4.8780463096E+00   -4.8689114038E+00   -4.8598106472E+00
-4.8507438487E+00   -4.8417108186E+00   -4.8327113686E+00   -4.8237453117E+00
-4.8148124624E+00   -4.8059126366E+00   -4.7970456516E+00   -4.7882113258E+00
-4.7794094791E+00   -4.7706399328E+00   -4.7619025094E+00   -4.7531970326E+00
-4.7445233277E+00   -4.7358812209E+00   -4.7272705400E+00   -4.7186911138E+00
-4.7101427724E+00   -4.7016253473E+00   -4.6931386709E+00   -4.6846825771E+00
-4.6762569009E+00   -4.6678614784E+00   -4.6594961470E+00   -4.6511607452E+00
-4.6428551126E+00   -4.6345790900E+00   -4.6263325195E+00   -4.6181152439E+00
-4.6099271076E+00   -4.6017679557E+00   -4.5936376347E+00   -4.5855359920E+00
-4.5774628762E+00   -4.5694181367E+00   -4.5614016243E+00   -4.5534131907E+00
-4.5454526886E+00   -4.5375199718E+00   -4.5296148949E+00   -4.5217373139E+00
-4.5138870855E+00   -4.5060640675E+00   -4.4982681187E+00   -4.4904990988E+00
-4.4827568685E+00   -4.4750412894E+00   -4.4673522243E+00   -4.4596895366E+00
-4.4520530909E+00   -4.4444427526E+00   -4.4368583880E+00   -4.4292998644E+00
-4.4217670499E+00   -4.4142598136E+00   -4.4067780255E+00   -4.3993215563E+00
-4.3918902777E+00   -4.3844840624E+00   -4.3771027836E+00   -4.3697463158E+00
-4.3624145339E+00   -4.3551073140E+00   -4.3478245328E+00   -4.3405660679E+00
</PP_LOCAL>
<PP_NONLOCAL>
<PP_BETA.1
type="real"
size="600"
columns="4"
index="1"
angular_momentum="0"
cutoff_radius_index=" 156"
cutoff_radius="    1.5500000000E+00" >
1.3658663089E-10    5.0935740422E-02    1.0184672648E-01    1.5270781164E-01
2.0349306930E-01    2.5417541337E-01    3.0472623145E-01    3.5511503475E-01
4.0530912853E-01    4.5527330696E-01    5.0496957578E-01    5.5435690624E-01
6.0339102323E-01    6.5202423045E-01    7.0020527510E-01    7.4787925420E-01
7.9498756424E-01    8.4146789581E-01    8.8725427395E-01    9.3227714514E-01
9.7646351099E-01    1.0197371086E+00    1.0620186368E+00    1.1032260277E+00
1.1432747620E+00    1.1820782256E+00    1.2195481070E+00    1.2555948309E+00
1.2901280268E+00    1.3230570290E+00    1.3542914033E+00    1.3837414981E+00
1.4113190156E+00    1.4369375974E+00    1.4605134219E+00    1.4819658079E+00
1.5012178186E+00    1.5181968641E+00    1.5328352931E+00    1.5450709740E+00
1.5548478551E+00    1.5621165040E+00    1.5668346173E+00    1.5689674997E+00
1.5684885046E+00    1.5653794348E+00    1.5596308980E+00    1.5512426136E+00
1.5402236682E+00    1.5265927156E+00    1.5103781204E+00    1.4916180416E+00
1.4703604556E+00    1.4466631165E+00    1.4205934540E+00    1.3922284074E+00
1.3616541971E+00    1.3289660332E+00    1.2942677638E+00    1.2576714630E+00
1.2192969625E+00    1.1792713278E+00    1.1377282841E+00    1.0948075930E+00
1.0506543861E+00    1.0054184585E+00    9.5925352770E-01    9.1231646170E-01
8.6476648305E-01    8.1676435314E-01    7.6847154273E-01    7.2004939470E-01
6.7165828467E-01    6.2345678542E-01    5.7560084117E-01    5.2824295747E-01
4.8153141253E-01    4.3560949553E-01    3.9061477743E-01    3.4667841943E-01
3.0392452394E-01    2.6246953262E-01    2.2242167585E-01    1.8388047719E-01
1.4693631644E-01    1.1167005406E-01    7.8152719469E-02    4.6445265093E-02
1.6598387642E-02   -1.1347582560E-02   -3.7362723813E-02   -6.1427497027E-02
-8.3532652190E-02   -1.0367906853E-01   -1.2187753011E-01   -1.3814843914E-01
-1.5252146957E-01   -1.6503516427E-01   -1.7573647914E-01   -1.8468027818E-01
-1.9192878375E-01   -1.9755098639E-01   -2.0162201918E-01   -2.0422250137E-01
-2.0543785656E-01   -2.0535761053E-01   -2.0407467393E-01   -2.0168461520E-01
-1.9828492873E-01   -1.9397430346E-01   -1.8885189680E-01   -1.8301661853E-01
-1.7656642920E-01   -1.6959765728E-01   -1.6220433867E-01   -1.5447758239E-01
-1.4650496522E-01   -1.3836995828E-01   -1.3015138738E-01   -1.2192292936E-01
-1.1375264535E-01   -1.0570255191E-01   -9.7828229620E-02   -9.0178473407E-02
-8.2794963490E-02   -7.5712059762E-02   -6.8956357454E-02   -6.2546758426E-02
-5.6495490236E-02   -5.0809387760E-02   -4.5490962249E-02   -4.0538592198E-02
-3.5947019676E-02   -3.1707818170E-02   -2.7809885033E-02   -2.4239939049E-02
-2.0983025487E-02   -1.8023021765E-02   -1.5343138483E-02   -1.2926410817E-02
-1.0756175003E-02   -8.8165254710E-03   -7.0927476887E-03   -5.5717224817E-03
-4.2422983547E-03   -3.0956264931E-03   -2.1258124273E-03   -1.3287331133E-03
-7.0176579680E-04   -2.5487745225E-04    4.7360915153E-06    8.8974364387E-05
4.5480336552E-05   -9.1653507524E-06   -9.7853626307E-06    2.3824206583E-06
0. 0. 0. 0.
0. 0. 0. 0.
0. 0. 0. 0.
0. 0. 0. 0.
0. 0. 0. 0.
0. 0. 0. 0.
0. 0. 0. 0.
0. 0. 0. 0.
0. 0. 0. 0.
0. 0. 0. 0.
0. 0. 0. 0.
0. 0. 0. 0.
0. 0. 0. 0.
0. 0. 0. 0.
0. 0. 0. 0.
0. 0. 0. 0.
0. 0. 0. 0.
0. 0. 0. 0.
0. 0. 0. 0.
0. 0. 0. 0.
0. 0. 0. 0.
0. 0. 0. 0.
0. 0. 0. 0.
0. 0. 0. 0.
0. 0. 0. 0.
0. 0. 0. 0.
0. 0. 0. 0.
0. 0. 0. 0.
0. 0. 0. 0.
0. 0. 0. 0.
0. 0. 0. 0.
0. 0. 0. 0.
0. 0. 0. 0.
0. 0. 0. 0.
0. 0. 0. 0.
0. 0. 0. 0.
0. 0. 0. 0.
0. 0. 0. 0.
0. 0. 0. 0.
0. 0. 0. 0.
0. 0. 0. 0.
0. 0. 0. 0.
0. 0. 0. 0.
0. 0. 0. 0.
0. 0. 0. 0.
0. 0. 0. 0.
0. 0. 0. 0.
0. 0. 0. 0.
0. 0. 0. 0.
0. 0. 0. 0.
0. 0. 0. 0.
0. 0. 0. 0.
0. 0. 0. 0.
0. 0. 0. 0.
0. 0. 0. 0.
0. 0. 0. 0.
0. 0. 0. 0.
0. 0. 0. 0.
0. 0. 0. 0.
0. 0. 0. 0.
0. 0. 0. 0.
0. 0. 0. 0.
0. 0. 0. 0.
0. 0. 0. 0.
0. 0. 0. 0.
0. 0. 0. 0.
0. 0. 0. 0.
0. 0. 0. 0.
0. 0. 0. 0.
0. 0. 0. 0.
0. 0. 0. 0.
0. 0. 0. 0.
0. 0. 0. 0.
0. 0. 0. 0.
0. 0. 0. 0.
0. 0. 0. 0.
0. 0. 0. 0.
0. 0. 0. 0.
0. 0. 0. 0.
0. 0. 0. 0.
0. 0. 0. 0.
0. 0. 0. 0.
0. 0. 0. 0.
0. 0. 0. 0.
0. 0. 0. 0.
0. 0. 0. 0.
0. 0. 0. 0.
0. 0. 0. 0.
0. 0. 0. 0.
0. 0. 0. 0.
0. 0. 0. 0.
0. 0. 0. 0.