<UPF version="2.0.1">
<PP_INFO>
NOTE!!!!
This file is trimmed with a mesh size of 600 from the original version.
Trimming performed at 2023-03-31 09:10:05.108707 by trim_upf.py version 0.1.0

This pseudopotential file has been produced using the code
ONCVPSP  (Optimized Norm-Conservinng Vanderbilt PSeudopotential)
scalar-relativistic version 3.3.0 08/16/2017 by D. R. Hamann
The code is available through a link at URL www.mat-simresearch.com.
Documentation with the package provides a full discription of the
input data below.
While it is not required under the terms of the GNU GPL, it is
suggested that you cite D. R. Hamann, Phys. Rev. B 88, 085117 (2013)
in any publication using these pseudopotentials.
<PP_INPUTFILE>
# ATOM AND REFERENCE CONFIGURATION
# atsym  z   nc   nv     iexc    psfile
Ni 28.00    3    4       4      upf
#
#   n    l    f        energy (Ha)
1    0    2.00
2    0    2.00
2    1    6.00
3    0    2.00
3    1    6.00
3    2    8.00
4    0    2.00
#
# PSEUDOPOTENTIAL AND OPTIMIZATION
# lmax
2
#
#   l,   rc,      ep,       ncon, nbas, qcut
0   1.25000  -4.08136    4    8   9.70000
1   1.35000  -2.62346    4    8   9.70000
2   1.65000  -0.32612    4    8   9.70000
#
# LOCAL POTENTIAL
# lloc, lpopt,  rc(5),   dvloc0
4    5   1.20000      0.00000
#
# VANDERBILT-KLEINMAN-BYLANDER PROJECTORs
# l, nproj, debl
0    2   3.87398
1    2   2.80000
2    2   1.00000
#
# MODEL CORE CHARGE
# icmod, fcfact, rcfact
3   3.00000   1.70000
#
# LOG DERIVATIVE ANALYSIS
# epsh1, epsh2, depsh
-12.00   12.00    0.02
#
# OUTPUT GRID
# rlmax, drl
6.00    0.01
#
# TEST CONFIGURATIONS
# ncnf
0
# nvcnf
#   n    l    f
</PP_INPUTFILE>
</PP_INFO>
<!--                               -->
<!-- END OF HUMAN READABLE SECTION -->
<!--                               -->
<PP_HEADER
generated="Generated using ONCVPSP code by D. R. Hamann"
author="anonymous"
date="171031"
comment=""
element="Ni"
pseudo_type="NC"
relativistic="scalar"
is_ultrasoft="F"
is_paw="F"
is_coulomb="F"
has_so="F"
has_wfc="F"
has_gipaw="F"
core_correction="T"
functional="PBE"
z_valence="   18.00"
total_psenergy="  -3.27769580985E+02"
rho_cutoff="   1.37100000000E+01"
l_max="2"
l_local="-1"
mesh_size="   600"
number_of_wfc="4"
number_of_proj="6"/>
<PP_MESH>
<PP_R type="real"  size="600" columns="8">
0.0000    0.0100    0.0200    0.0300    0.0400    0.0500    0.0600    0.0700
0.0800    0.0900    0.1000    0.1100    0.1200    0.1300    0.1400    0.1500
0.1600    0.1700    0.1800    0.1900    0.2000    0.2100    0.2200    0.2300
0.2400    0.2500    0.2600    0.2700    0.2800    0.2900    0.3000    0.3100
0.3200    0.3300    0.3400    0.3500    0.3600    0.3700    0.3800    0.3900
0.4000    0.4100    0.4200    0.4300    0.4400    0.4500    0.4600    0.4700
0.4800    0.4900    0.5000    0.5100    0.5200    0.5300    0.5400    0.5500
0.5600    0.5700    0.5800    0.5900    0.6000    0.6100    0.6200    0.6300
0.6400    0.6500    0.6600    0.6700    0.6800    0.6900    0.7000    0.7100
0.7200    0.7300    0.7400    0.7500    0.7600    0.7700    0.7800    0.7900
0.8000    0.8100    0.8200    0.8300    0.8400    0.8500    0.8600    0.8700
0.8800    0.8900    0.9000    0.9100    0.9200    0.9300    0.9400    0.9500
0.9600    0.9700    0.9800    0.9900    1.0000    1.0100    1.0200    1.0300
1.0400    1.0500    1.0600    1.0700    1.0800    1.0900    1.1000    1.1100
1.1200    1.1300    1.1400    1.1500    1.1600    1.1700    1.1800    1.1900
1.2000    1.2100    1.2200    1.2300    1.2400    1.2500    1.2600    1.2700
1.2800    1.2900    1.3000    1.3100    1.3200    1.3300    1.3400    1.3500
1.3600    1.3700    1.3800    1.3900    1.4000    1.4100    1.4200    1.4300
1.4400    1.4500    1.4600    1.4700    1.4800    1.4900    1.5000    1.5100
1.5200    1.5300    1.5400    1.5500    1.5600    1.5700    1.5800    1.5900
1.6000    1.6100    1.6200    1.6300    1.6400    1.6500    1.6600    1.6700
1.6800    1.6900    1.7000    1.7100    1.7200    1.7300    1.7400    1.7500
1.7600    1.7700    1.7800    1.7900    1.8000    1.8100    1.8200    1.8300
1.8400    1.8500    1.8600    1.8700    1.8800    1.8900    1.9000    1.9100
1.9200    1.9300    1.9400    1.9500    1.9600    1.9700    1.9800    1.9900
2.0000    2.0100    2.0200    2.0300    2.0400    2.0500    2.0600    2.0700
2.0800    2.0900    2.1000    2.1100    2.1200    2.1300    2.1400    2.1500
2.1600    2.1700    2.1800    2.1900    2.2000    2.2100    2.2200    2.2300
2.2400    2.2500    2.2600    2.2700    2.2800    2.2900    2.3000    2.3100
2.3200    2.3300    2.3400    2.3500    2.3600    2.3700    2.3800    2.3900
2.4000    2.4100    2.4200    2.4300    2.4400    2.4500    2.4600    2.4700
2.4800    2.4900    2.5000    2.5100    2.5200    2.5300    2.5400    2.5500
2.5600    2.5700    2.5800    2.5900    2.6000    2.6100    2.6200    2.6300
2.6400    2.6500    2.6600    2.6700    2.6800    2.6900    2.7000    2.7100
2.7200    2.7300    2.7400    2.7500    2.7600    2.7700    2.7800    2.7900
2.8000    2.8100    2.8200    2.8300    2.8400    2.8500    2.8600    2.8700
2.8800    2.8900    2.9000    2.9100    2.9200    2.9300    2.9400    2.9500
2.9600    2.9700    2.9800    2.9900    3.0000    3.0100    3.0200    3.0300
3.0400    3.0500    3.0600    3.0700    3.0800    3.0900    3.1000    3.1100
3.1200    3.1300    3.1400    3.1500    3.1600    3.1700    3.1800    3.1900
3.2000    3.2100    3.2200    3.2300    3.2400    3.2500    3.2600    3.2700
3.2800    3.2900    3.3000    3.3100    3.3200    3.3300    3.3400    3.3500
3.3600    3.3700    3.3800    3.3900    3.4000    3.4100    3.4200    3.4300
3.4400    3.4500    3.4600    3.4700    3.4800    3.4900    3.5000    3.5100
3.5200    3.5300    3.5400    3.5500    3.5600    3.5700    3.5800    3.5900
3.6000    3.6100    3.6200    3.6300    3.6400    3.6500    3.6600    3.6700
3.6800    3.6900    3.7000    3.7100    3.7200    3.7300    3.7400    3.7500
3.7600    3.7700    3.7800    3.7900    3.8000    3.8100    3.8200    3.8300
3.8400    3.8500    3.8600    3.8700    3.8800    3.8900    3.9000    3.9100
3.9200    3.9300    3.9400    3.9500    3.9600    3.9700    3.9800    3.9900
4.0000    4.0100    4.0200    4.0300    4.0400    4.0500    4.0600    4.0700
4.0800    4.0900    4.1000    4.1100    4.1200    4.1300    4.1400    4.1500
4.1600    4.1700    4.1800    4.1900    4.2000    4.2100    4.2200    4.2300
4.2400    4.2500    4.2600    4.2700    4.2800    4.2900    4.3000    4.3100
4.3200    4.3300    4.3400    4.3500    4.3600    4.3700    4.3800    4.3900
4.4000    4.4100    4.4200    4.4300    4.4400    4.4500    4.4600    4.4700
4.4800    4.4900    4.5000    4.5100    4.5200    4.5300    4.5400    4.5500
4.5600    4.5700    4.5800    4.5900    4.6000    4.6100    4.6200    4.6300
4.6400    4.6500    4.6600    4.6700    4.6800    4.6900    4.7000    4.7100
4.7200    4.7300    4.7400    4.7500    4.7600    4.7700    4.7800    4.7900
4.8000    4.8100    4.8200    4.8300    4.8400    4.8500    4.8600    4.8700
4.8800    4.8900    4.9000    4.9100    4.9200    4.9300    4.9400    4.9500
4.9600    4.9700    4.9800    4.9900    5.0000    5.0100    5.0200    5.0300
5.0400    5.0500    5.0600    5.0700    5.0800    5.0900    5.1000    5.1100
5.1200    5.1300    5.1400    5.1500    5.1600    5.1700    5.1800    5.1900
5.2000    5.2100    5.2200    5.2300    5.2400    5.2500    5.2600    5.2700
5.2800    5.2900    5.3000    5.3100    5.3200    5.3300    5.3400    5.3500
5.3600    5.3700    5.3800    5.3900    5.4000    5.4100    5.4200    5.4300
5.4400    5.4500    5.4600    5.4700    5.4800    5.4900    5.5000    5.5100
5.5200    5.5300    5.5400    5.5500    5.5600    5.5700    5.5800    5.5900
5.6000    5.6100    5.6200    5.6300    5.6400    5.6500    5.6600    5.6700
5.6800    5.6900    5.7000    5.7100    5.7200    5.7300    5.7400    5.7500
5.7600    5.7700    5.7800    5.7900    5.8000    5.8100    5.8200    5.8300
5.8400    5.8500    5.8600    5.8700    5.8800    5.8900    5.9000    5.9100
5.9200    5.9300    5.9400    5.9500    5.9600    5.9700    5.9800    5.9900
</PP_R>
<PP_RAB type="real"  size="600" columns="8">
0.0100    0.0100    0.0100    0.0100    0.0100    0.0100    0.0100    0.0100
0.0100    0.0100    0.0100    0.0100    0.0100    0.0100    0.0100    0.0100
0.0100    0.0100    0.0100    0.0100    0.0100    0.0100    0.0100    0.0100
0.0100    0.0100    0.0100    0.0100    0.0100    0.0100    0.0100    0.0100
0.0100    0.0100    0.0100    0.0100    0.0100    0.0100    0.0100    0.0100
0.0100    0.0100    0.0100    0.0100    0.0100    0.0100    0.0100    0.0100
0.0100    0.0100    0.0100    0.0100    0.0100    0.0100    0.0100    0.0100
0.0100    0.0100    0.0100    0.0100    0.0100    0.0100    0.0100    0.0100
0.0100    0.0100    0.0100    0.0100    0.0100    0.0100    0.0100    0.0100
0.0100    0.0100    0.0100    0.0100    0.0100    0.0100    0.0100    0.0100
0.0100    0.0100    0.0100    0.0100    0.0100    0.0100    0.0100    0.0100
0.0100    0.0100    0.0100    0.0100    0.0100    0.0100    0.0100    0.0100
0.0100    0.0100    0.0100    0.0100    0.0100    0.0100    0.0100    0.0100
0.0100    0.0100    0.0100    0.0100    0.0100    0.0100    0.0100    0.0100
0.0100    0.0100    0.0100    0.0100    0.0100    0.0100    0.0100    0.0100
0.0100    0.0100    0.0100    0.0100    0.0100    0.0100    0.0100    0.0100
0.0100    0.0100    0.0100    0.0100    0.0100    0.0100    0.0100    0.0100
0.0100    0.0100    0.0100    0.0100    0.0100    0.0100    0.0100    0.0100
0.0100    0.0100    0.0100    0.0100    0.0100    0.0100    0.0100    0.0100
0.0100    0.0100    0.0100    0.0100    0.0100    0.0100    0.0100    0.0100
0.0100    0.0100    0.0100    0.0100    0.0100    0.0100    0.0100    0.0100
0.0100    0.0100    0.0100    0.0100    0.0100    0.0100    0.0100    0.0100
0.0100    0.0100    0.0100    0.0100    0.0100    0.0100    0.0100    0.0100
0.0100    0.0100    0.0100    0.0100    0.0100    0.0100    0.0100    0.0100
0.0100    0.0100    0.0100    0.0100    0.0100    0.0100    0.0100    0.0100
0.0100    0.0100    0.0100    0.0100    0.0100    0.0100    0.0100    0.0100
0.0100    0.0100    0.0100    0.0100    0.0100    0.0100    0.0100    0.0100
0.0100    0.0100    0.0100    0.0100    0.0100    0.0100    0.0100    0.0100
0.0100    0.0100    0.0100    0.0100    0.0100    0.0100    0.0100    0.0100
0.0100    0.0100    0.0100    0.0100    0.0100    0.0100    0.0100    0.0100
0.0100    0.0100    0.0100    0.0100    0.0100    0.0100    0.0100    0.0100
0.0100    0.0100    0.0100    0.0100    0.0100    0.0100    0.0100    0.0100
0.0100    0.0100    0.0100    0.0100    0.0100    0.0100    0.0100    0.0100
0.0100    0.0100    0.0100    0.0100    0.0100    0.0100    0.0100    0.0100
0.0100    0.0100    0.0100    0.0100    0.0100    0.0100    0.0100    0.0100
0.0100    0.0100    0.0100    0.0100    0.0100    0.0100    0.0100    0.0100
0.0100    0.0100    0.0100    0.0100    0.0100    0.0100    0.0100    0.0100
0.0100    0.0100    0.0100    0.0100    0.0100    0.0100    0.0100    0.0100
0.0100    0.0100    0.0100    0.0100    0.0100    0.0100    0.0100    0.0100
0.0100    0.0100    0.0100    0.0100    0.0100    0.0100    0.0100    0.0100
0.0100    0.0100    0.0100    0.0100    0.0100    0.0100    0.0100    0.0100
0.0100    0.0100    0.0100    0.0100    0.0100    0.0100    0.0100    0.0100
0.0100    0.0100    0.0100    0.0100    0.0100    0.0100    0.0100    0.0100
0.0100    0.0100    0.0100    0.0100    0.0100    0.0100    0.0100    0.0100
0.0100    0.0100    0.0100    0.0100    0.0100    0.0100    0.0100    0.0100
0.0100    0.0100    0.0100    0.0100    0.0100    0.0100    0.0100    0.0100
0.0100    0.0100    0.0100    0.0100    0.0100    0.0100    0.0100    0.0100
0.0100    0.0100    0.0100    0.0100    0.0100    0.0100    0.0100    0.0100
0.0100    0.0100    0.0100    0.0100    0.0100    0.0100    0.0100    0.0100
0.0100    0.0100    0.0100    0.0100    0.0100    0.0100    0.0100    0.0100
0.0100    0.0100    0.0100    0.0100    0.0100    0.0100    0.0100    0.0100
0.0100    0.0100    0.0100    0.0100    0.0100    0.0100    0.0100    0.0100
0.0100    0.0100    0.0100    0.0100    0.0100    0.0100    0.0100    0.0100
0.0100    0.0100    0.0100    0.0100    0.0100    0.0100    0.0100    0.0100
0.0100    0.0100    0.0100    0.0100    0.0100    0.0100    0.0100    0.0100
0.0100    0.0100    0.0100    0.0100    0.0100    0.0100    0.0100    0.0100
0.0100    0.0100    0.0100    0.0100    0.0100    0.0100    0.0100    0.0100
0.0100    0.0100    0.0100    0.0100    0.0100    0.0100    0.0100    0.0100
0.0100    0.0100    0.0100    0.0100    0.0100    0.0100    0.0100    0.0100
0.0100    0.0100    0.0100    0.0100    0.0100    0.0100    0.0100    0.0100
0.0100    0.0100    0.0100    0.0100    0.0100    0.0100    0.0100    0.0100
0.0100    0.0100    0.0100    0.0100    0.0100    0.0100    0.0100    0.0100
0.0100    0.0100    0.0100    0.0100    0.0100    0.0100    0.0100    0.0100
0.0100    0.0100    0.0100    0.0100    0.0100    0.0100    0.0100    0.0100
0.0100    0.0100    0.0100    0.0100    0.0100    0.0100    0.0100    0.0100
0.0100    0.0100    0.0100    0.0100    0.0100    0.0100    0.0100    0.0100
0.0100    0.0100    0.0100    0.0100    0.0100    0.0100    0.0100    0.0100
0.0100    0.0100    0.0100    0.0100    0.0100    0.0100    0.0100    0.0100
0.0100    0.0100    0.0100    0.0100    0.0100    0.0100    0.0100    0.0100
0.0100    0.0100    0.0100    0.0100    0.0100    0.0100    0.0100    0.0100
0.0100    0.0100    0.0100    0.0100    0.0100    0.0100    0.0100    0.0100
0.0100    0.0100    0.0100    0.0100    0.0100    0.0100    0.0100    0.0100
0.0100    0.0100    0.0100    0.0100    0.0100    0.0100    0.0100    0.0100
0.0100    0.0100    0.0100    0.0100    0.0100    0.0100    0.0100    0.0100
0.0100    0.0100    0.0100    0.0100    0.0100    0.0100    0.0100    0.0100
</PP_RAB>
</PP_MESH>
<PP_LOCAL type="real"  size="600" columns="4">
-6.1521208073E+01   -6.1518747969E+01   -6.1511365902E+01   -6.1499056641E+01
-6.1481811294E+01   -6.1459617075E+01   -6.1432456996E+01   -6.1400309504E+01
-6.1363148074E+01   -6.1320940812E+01   -6.1273650049E+01   -6.1221231994E+01
-6.1163636430E+01   -6.1100806499E+01   -6.1032678569E+01   -6.0959182211E+01
-6.0880240290E+01   -6.0795769159E+01   -6.0705678979E+01   -6.0609874144E+01
-6.0508253821E+01   -6.0400712581E+01   -6.0287141132E+01   -6.0167427131E+01
-6.0041456075E+01   -5.9909112250E+01   -5.9770279749E+01   -5.9624843522E+01
-5.9472690476E+01   -5.9313710592E+01   -5.9147798071E+01   -5.8974852479E+01
-5.8794779896E+01   -5.8607494048E+01   -5.8412917417E+01   -5.8210982317E+01
-5.8001631912E+01   -5.7784821180E+01   -5.7560517800E+01   -5.7328702948E+01
-5.7089371991E+01   -5.6842535079E+01   -5.6588217607E+01   -5.6326460556E+01
-5.6057320706E+01   -5.5780870719E+01   -5.5497199097E+01   -5.5206410022E+01
-5.4908623090E+01   -5.4603972949E+01   -5.4292608855E+01   -5.3974694170E+01
-5.3650405807E+01   -5.3319933638E+01   -5.2983479891E+01   -5.2641258531E+01
-5.2293494637E+01   -5.1940423789E+01   -5.1582291455E+01   -5.1219352378E+01
-5.0851869962E+01   -5.0480115650E+01   -5.0104368283E+01   -4.9724913429E+01
-4.9342042685E+01   -4.8956052925E+01   -4.8567245509E+01   -4.8175925442E+01
-4.7782400474E+01   -4.7386980161E+01   -4.6989974883E+01   -4.6591694830E+01
-4.6192448974E+01   -4.5792544023E+01   -4.5392283400E+01   -4.4991966230E+01
-4.4591886370E+01   -4.4192331483E+01   -4.3793582175E+01   -4.3395911189E+01
-4.2999582682E+01   -4.2604851561E+01   -4.2211962911E+01   -4.1821151490E+01
-4.1432641293E+01   -4.1046645202E+01   -4.0663364685E+01   -4.0282989576E+01
-3.9905697908E+01   -3.9531655803E+01   -3.9161017425E+01   -3.8793924978E+01
-3.8430508771E+01   -3.8070887318E+01   -3.7715167506E+01   -3.7363444804E+01
-3.7015803528E+01   -3.6672317156E+01   -3.6333048685E+01   -3.5998051041E+01
-3.5667367518E+01   -3.5341032265E+01   -3.5019070788E+01   -3.4701500474E+01
-3.4388331121E+01   -3.4079565466E+01   -3.3775199694E+01   -3.3475223914E+01
-3.3179622599E+01   -3.2888374970E+01   -3.2601455307E+01   -3.2318833200E+01
-3.2040473709E+01   -3.1766337447E+01   -3.1496380570E+01   -3.1230554692E+01
-3.0968806713E+01   -3.0711078577E+01   -3.0457306955E+01   -3.0207423027E+01
-2.9961351684E+01   -2.9719011475E+01   -2.9480318869E+01   -2.9245192299E+01
-2.9013554756E+01   -2.8785332423E+01   -2.8560455549E+01   -2.8338858640E+01
-2.8120481060E+01   -2.7905261661E+01   -2.7693136474E+01   -2.7484044585E+01
-2.7277926852E+01   -2.7074724560E+01   -2.6874380273E+01   -2.6676836057E+01
-2.6482031929E+01   -2.6289904499E+01   -2.6100390038E+01   -2.5913435339E+01
-2.5728990652E+01   -2.5547004349E+01   -2.5367426897E+01   -2.5190210937E+01
-2.5015310792E+01   -2.4842682767E+01   -2.4672285289E+01   -2.4504078983E+01
-2.4338026740E+01   -2.4174093743E+01   -2.4012247464E+01   -2.3852457618E+01
-2.3694696079E+01   -2.3538936770E+01   -2.3385155504E+01   -2.3233329808E+01
-2.3083438725E+01   -2.2935462584E+01   -2.2789382809E+01   -2.2645181754E+01
-2.2502841912E+01   -2.2362346626E+01   -2.2223679887E+01   -2.2086825116E+01
-2.1951768262E+01   -2.1818484810E+01   -2.1686933514E+01   -2.1557055025E+01
-2.1428752585E+01   -2.1301942091E+01   -2.1176608259E+01   -2.1052748849E+01
-2.0930333956E+01   -2.0809333583E+01   -2.0689725291E+01   -2.0571486084E+01
-2.0454592804E+01   -2.0339022785E+01   -2.0224753834E+01   -2.0111764164E+01
-2.0000032375E+01   -1.9889537459E+01   -1.9780258795E+01   -1.9672176150E+01
-1.9565269680E+01   -1.9459519934E+01   -1.9354907860E+01   -1.9251414808E+01
-1.9149022538E+01   -1.9047713189E+01   -1.8947469355E+01   -1.8848274010E+01
-1.8750110351E+01   -1.8652962588E+01   -1.8556815762E+01   -1.8461653723E+01
-1.8367456389E+01   -1.8274204744E+01   -1.8181892043E+01   -1.8090513483E+01
-1.8000057239E+01   -1.7910504925E+01   -1.7821838425E+01   -1.7734045052E+01
-1.7647112407E+01   -1.7561027842E+01   -1.7475779026E+01   -1.7391353948E+01
-1.7307740709E+01   -1.7224927599E+01   -1.7142903198E+01   -1.7061656298E+01
-1.6981175898E+01   -1.6901451200E+01   -1.6822471611E+01   -1.6744226732E+01
-1.6666706361E+01   -1.6589900479E+01   -1.6513799255E+01   -1.6438393035E+01
-1.6363672341E+01   -1.6289627868E+01   -1.6216250476E+01   -1.6143531192E+01
-1.6071461202E+01   -1.6000031846E+01   -1.5929234622E+01   -1.5859061175E+01
-1.5789503298E+01   -1.5720552924E+01   -1.5652202131E+01   -1.5584443131E+01
-1.5517268271E+01   -1.5450670031E+01   -1.5384641017E+01   -1.5319173962E+01
-1.5254261723E+01   -1.5189897276E+01   -1.5126073716E+01   -1.5062784254E+01
-1.5000022213E+01   -1.4937781027E+01   -1.4876054240E+01   -1.4814835500E+01
-1.4754118562E+01   -1.4693897279E+01   -1.4634165608E+01   -1.4574917602E+01
-1.4516147409E+01   -1.4457849273E+01   -1.4400017529E+01   -1.4342646602E+01
-1.4285731006E+01   -1.4229265342E+01   -1.4173244296E+01   -1.4117662636E+01
-1.4062515214E+01   -1.4007796960E+01   -1.3953502884E+01   -1.3899628073E+01
-1.3846167689E+01   -1.3793116967E+01   -1.3740471218E+01   -1.3688225822E+01
-1.3636376229E+01   -1.3584917958E+01   -1.3533846595E+01   -1.3483157794E+01
-1.3432847272E+01   -1.3382910810E+01   -1.3333344251E+01   -1.3284143502E+01
-1.3235304526E+01   -1.3186823349E+01   -1.3138696053E+01   -1.3090918776E+01
-1.3043487716E+01   -1.2996399121E+01   -1.2949649297E+01   -1.2903234600E+01
-1.2857151440E+01   -1.2811396276E+01   -1.2765965621E+01   -1.2720856033E+01
-1.2676064121E+01   -1.2631586542E+01   -1.2587419997E+01   -1.2543561235E+01
-1.2500007051E+01   -1.2456754283E+01   -1.2413799812E+01   -1.2371140563E+01
-1.2328773504E+01   -1.2286695642E+01   -1.2244904026E+01   -1.2203395745E+01
-1.2162167928E+01   -1.2121217741E+01   -1.2080542390E+01   -1.2040139118E+01
-1.2000005202E+01   -1.1960137959E+01   -1.1920534740E+01   -1.1881192929E+01
-1.1842109949E+01   -1.1803283252E+01   -1.1764710326E+01   -1.1726388692E+01
-1.1688315901E+01   -1.1650489538E+01   -1.1612907217E+01   -1.1575566586E+01
-1.1538465319E+01   -1.1501601122E+01   -1.1464971731E+01   -1.1428574908E+01
-1.1392408448E+01   -1.1356470168E+01   -1.1320757916E+01   -1.1285269568E+01
-1.1250003023E+01   -1.1214956208E+01   -1.1180127077E+01   -1.1145513608E+01
-1.1111113804E+01   -1.1076925692E+01   -1.1042947324E+01   -1.1009176777E+01
-1.0975612148E+01   -1.0942251561E+01   -1.0909093161E+01   -1.0876135115E+01
-1.0843375613E+01   -1.0810812865E+01   -1.0778445105E+01   -1.0746270587E+01
-1.0714287585E+01   -1.0682494394E+01   -1.0650889329E+01   -1.0619470727E+01
-1.0588236940E+01   -1.0557186344E+01   -1.0526317331E+01   -1.0495628314E+01
-1.0465117722E+01   -1.0434784004E+01   -1.0404625626E+01   -1.0374641073E+01
-1.0344828846E+01   -1.0315187464E+01   -1.0285715461E+01   -1.0256411392E+01
-1.0227273823E+01   -1.0198301341E+01   -1.0169492546E+01   -1.0140846055E+01
-1.0112360500E+01   -1.0084034528E+01   -1.0055866803E+01   -1.0027856003E+01
-1.0000000818E+01   -9.9722999566E+00   -9.9447521394E+00   -9.9173561015E+00
-9.8901105919E+00   -9.8630143736E+00   -9.8360662227E+00   -9.8092649288E+00
-9.7826092949E+00   -9.7560981365E+00   -9.7297302824E+00   -9.7035045736E+00
-9.6774198639E+00   -9.6514750192E+00   -9.6256689176E+00   -9.6000004491E+00
-9.5744685155E+00   -9.5490720304E+00   -9.5238099189E+00   -9.4986811171E+00
-9.4736845727E+00   -9.4488192443E+00   -9.4240841013E+00   -9.3994781241E+00
-9.3750003035E+00   -9.3506496408E+00   -9.3264251479E+00   -9.3023258466E+00
-9.2783507689E+00   -9.2544989568E+00   -9.2307694621E+00   -9.2071613464E+00
-9.1836736806E+00   -9.1603055452E+00   -9.1370560303E+00   -9.1139242347E+00
-9.0909092668E+00   -9.0680102437E+00   -9.0452262913E+00   -9.0225565446E+00
-9.0000001469E+00   -8.9775562503E+00   -8.9552240151E+00   -8.9330026102E+00
-8.9108912126E+00   -8.8888890073E+00   -8.8669951875E+00   -8.8452089543E+00
-8.8235295167E+00   -8.8019560912E+00   -8.7804879022E+00   -8.7591241814E+00
-8.7378641683E+00   -8.7167071094E+00   -8.6956522588E+00   -8.6746988775E+00
-8.6538462338E+00   -8.6330936030E+00   -8.6124402672E+00   -8.5918855156E+00
-8.5714286438E+00   -8.5510689546E+00   -8.5308057568E+00   -8.5106383663E+00
-8.4905661052E+00   -8.4705883018E+00   -8.4507042911E+00   -8.4309134141E+00
-8.4112150178E+00   -8.3916084557E+00   -8.3720930870E+00   -8.3526682770E+00
-8.3333333967E+00   -8.3140878231E+00   -8.2949309388E+00   -8.2758621322E+00
-8.2568807973E+00   -8.2379863335E+00   -8.2191781459E+00   -8.2004556448E+00
-8.1818182460E+00   -8.1632653706E+00   -8.1447964449E+00   -8.1264109004E+00
-8.1081081736E+00   -8.0898877064E+00   -8.0717489452E+00   -8.0536913418E+00
-8.0357143528E+00   -8.0178174394E+00   -8.0000000678E+00   -7.9822617089E+00
-7.9646018384E+00   -7.9470199363E+00   -7.9295154875E+00   -7.9120879813E+00
-7.8947369116E+00   -7.8774617764E+00   -7.8602620785E+00   -7.8431373247E+00
-7.8260870264E+00   -7.8091106989E+00   -7.7922078620E+00   -7.7753780394E+00
-7.7586207591E+00   -7.7419355530E+00   -7.7253219573E+00   -7.7087795117E+00
-7.6923077603E+00   -7.6759062508E+00   -7.6595745349E+00   -7.6433121681E+00
-7.6271187095E+00   -7.6109937221E+00   -7.5949367725E+00   -7.5789474311E+00
-7.5630252716E+00   -7.5471698717E+00   -7.5313808122E+00   -7.5156576778E+00
-7.5000000563E+00   -7.4844075392E+00   -7.4688797212E+00   -7.4534162005E+00
-7.4380165785E+00   -7.4226804600E+00   -7.4074074530E+00   -7.3921971688E+00
-7.3770492216E+00   -7.3619632292E+00   -7.3469388121E+00   -7.3319755942E+00
-7.3170732022E+00   -7.3022312661E+00   -7.2874494187E+00   -7.2727272958E+00
-7.2580645362E+00   -7.2434607816E+00   -7.2289156764E+00   -7.2144288682E+00
-7.2000000071E+00   -7.1856287461E+00   -7.1713147410E+00   -7.1570576503E+00
-7.1428571353E+00   -7.1287128599E+00   -7.1146244905E+00   -7.1005916965E+00
-7.0866141496E+00   -7.0726915241E+00   -7.0588234971E+00   -7.0450097479E+00
-7.0312499587E+00   -7.0175438137E+00   -7.0038909998E+00   -6.9902912066E+00
-6.9767441256E+00   -6.9632494510E+00   -6.9498068792E+00   -6.9364161092E+00
-6.9230768421E+00   -6.9097887812E+00   -6.8965516324E+00   -6.8833651035E+00
-6.8702289048E+00   -6.8571427486E+00   -6.8441063496E+00   -6.8311194245E+00
-6.8181816922E+00   -6.8052928737E+00   -6.7924526922E+00   -6.7796608729E+00
-6.7669171430E+00   -6.7542212319E+00   -6.7415728709E+00   -6.7289717935E+00
-6.7164177349E+00   -6.7039104325E+00   -6.6914496256E+00   -6.6790350553E+00
-6.6666664648E+00   -6.6543435992E+00   -6.6420662054E+00   -6.6298340320E+00
-6.6176468299E+00   -6.6055043513E+00   -6.5934063506E+00   -6.5813525838E+00
-6.5693428089E+00   -6.5573767853E+00   -6.5454542744E+00   -6.5335750395E+00
-6.5217388451E+00   -6.5099454579E+00   -6.4981946461E+00   -6.4864861794E+00
-6.4748198295E+00   -6.4631953695E+00   -6.4516125742E+00   -6.4400712199E+00
-6.4285710847E+00   -6.4171119482E+00   -6.4056935915E+00   -6.3943157973E+00
-6.3829783498E+00   -6.3716810348E+00   -6.3604236397E+00   -6.3492059531E+00
-6.3380277654E+00   -6.3268888683E+00   -6.3157890550E+00   -6.3047281202E+00
-6.2937058600E+00   -6.2827220718E+00   -6.2717765547E+00   -6.2608691089E+00
-6.2499995362E+00   -6.2391676396E+00   -6.2283732236E+00   -6.2176160940E+00
-6.2068960579E+00   -6.1962129238E+00   -6.1855665015E+00   -6.1749566021E+00
-6.1643830380E+00   -6.1538456228E+00   -6.1433441714E+00   -6.1328785001E+00
-6.1224484263E+00   -6.1120537688E+00   -6.1016943473E+00   -6.0913699832E+00
-6.0810804986E+00   -6.0708257172E+00   -6.0606054637E+00   -6.0504195640E+00
-6.0402678451E+00   -6.0301501354E+00   -6.0200662642E+00   -6.0100160620E+00
</PP_LOCAL>
<PP_NONLOCAL>
<PP_BETA.1
type="real"
size="600"
columns="4"
index="1"
angular_momentum="0"
cutoff_radius_index=" 172"
cutoff_radius="    1.7100000000E+00" >
-1.3634063878E-09    1.0435590006E-01    2.0831601090E-01    3.1148683436E-01
4.1347943134E-01    5.1391164402E-01    6.1241025036E-01    7.0861302984E-01
8.0217072097E-01    8.9274885247E-01    9.8002943234E-01    1.0637124807E+00
1.1435173952E+00    1.2191841395E+00    1.2904742489E+00    1.3571716492E+00
1.4190832870E+00    1.4760395743E+00    1.5278946495E+00    1.5745264637E+00
1.6158366979E+00    1.6517505250E+00    1.6822162261E+00    1.7072046773E+00
1.7267087207E+00    1.7407424362E+00    1.7493403310E+00    1.7525564621E+00
1.7504635106E+00    1.7431518224E+00    1.7307284306E+00    1.7133160759E+00
1.6910522353E+00    1.6640881727E+00    1.6325880200E+00    1.5967278974E+00
1.5566950770E+00    1.5126871954E+00    1.4649115150E+00    1.4135842342E+00
1.3589298440E+00    1.3011805255E+00    1.2405755830E+00    1.1773609037E+00
1.1117884360E+00    1.0441156744E+00    9.7460514173E-01    9.0352385636E-01
8.3114277243E-01    7.5773618276E-01    6.8358107308E-01    6.0895641793E-01
5.3414240973E-01    4.5941961398E-01    3.8506804535E-01    3.1136616152E-01
2.3858977382E-01    1.6701087609E-01    9.6896395655E-02    2.8506872875E-02
-3.7904921820E-02   -1.0209542205E-01   -1.6383173707E-01   -2.2289314486E-01
-2.7907258922E-01   -3.3217816110E-01   -3.8203454378E-01   -4.2848439994E-01
-4.7138967845E-01   -5.1063281853E-01   -5.4611782886E-01   -5.7777122043E-01
-6.0554277272E-01   -6.2940611456E-01   -6.4935910283E-01   -6.6542398493E-01
-6.7764733330E-01   -6.8609974361E-01   -6.9087529154E-01   -6.9209074645E-01
-6.8988454435E-01   -6.8441552577E-01   -6.7586144867E-01   -6.6441728968E-01
-6.5029335081E-01   -6.3371319254E-01   -6.1491141678E-01   -5.9413132663E-01
-5.7162249199E-01   -5.4763825233E-01   -5.2243318941E-01   -4.9626060380E-01
-4.6937002958E-01   -4.4200482148E-01   -4.1439984818E-01   -3.8677932405E-01
-3.5935481017E-01   -3.3232341268E-01   -3.0586620409E-01   -2.8014688948E-01
-2.5531073620E-01   -2.3148378111E-01   -2.0877232538E-01   -1.8726272208E-01
-1.6702145703E-01   -1.4809551866E-01   -1.3051304785E-01   -1.1428425385E-01
-9.9402578136E-02   -8.5846083665E-02   -7.3579043095E-02   -6.2553696488E-02
-5.2712145355E-02   -4.3988348017E-02   -3.6310179170E-02   -2.9601515483E-02
-2.3784308154E-02   -1.8780602638E-02   -1.4514467163E-02   -1.0913837776E-02
-7.9120516217E-03   -5.4494052193E-03   -3.4761610218E-03   -1.9525791808E-03
-8.4960177136E-04   -1.7964833595E-04    8.4191283857E-05    5.8586544844E-05
-1.4068797235E-05   -4.6713982738E-06    3.4767684237E-06   -1.6069498294E-07
-1.3275919592E-07    0.0000000000E+00    0.0000000000E+00    0.0000000000E+00
0.0000000000E+00    0.0000000000E+00    0.0000000000E+00    0.0000000000E+00
0.0000000000E+00    0.0000000000E+00    0.0000000000E+00    0.0000000000E+00
0.0000000000E+00    0.0000000000E+00    0.0000000000E+00    0.0000000000E+00
0.0000000000E+00    0.0000000000E+00    0.0000000000E+00    0.0000000000E+00
0.0000000000E+00    0.0000000000E+00    0.0000000000E+00    0.0000000000E+00
0.0000000000E+00    0.0000000000E+00    0.0000000000E+00    0.0000000000E+00
0.0000000000E+00    0.0000000000E+00    0.0000000000E+00    0.0000000000E+00
0.0000000000E+00    0.0000000000E+00    0.0000000000E+00    0.0000000000E+00
0.0000000000E+00    0.0000000000E+00    0.0000000000E+00    0.0000000000E+00
0. 0. 0. 0.
0. 0. 0. 0.
0. 0. 0. 0.
0. 0. 0. 0.
0. 0. 0. 0.
0. 0. 0. 0.
0. 0. 0. 0.
0. 0. 0. 0.
0. 0. 0. 0.
0. 0. 0. 0.
0. 0. 0. 0.
0. 0. 0. 0.
0. 0. 0. 0.
0. 0. 0. 0.
0. 0. 0. 0.
0. 0. 0. 0.
0. 0. 0. 0.
0. 0. 0. 0.
0. 0. 0. 0.
0. 0. 0. 0.
0. 0. 0. 0.
0. 0. 0. 0.
0. 0. 0. 0.
0. 0. 0. 0.
0. 0. 0. 0.
0. 0. 0. 0.
0. 0. 0. 0.
0. 0. 0. 0.
0. 0. 0. 0.
0. 0. 0. 0.
0. 0. 0. 0.
0. 0. 0. 0.
0. 0. 0. 0.
0. 0. 0. 0.
0. 0. 0. 0.
0. 0. 0. 0.
0. 0. 0. 0.
0. 0. 0. 0.
0. 0. 0. 0.
0. 0. 0. 0.
0. 0. 0. 0.
0. 0. 0. 0.
0. 0. 0. 0.
0. 0. 0. 0.
0. 0. 0. 0.
0. 0. 0. 0.
0. 0. 0. 0.
0. 0. 0. 0.
0. 0. 0. 0.
0. 0. 0. 0.
0. 0. 0. 0.
0. 0. 0. 0.
0. 0. 0. 0.
0. 0. 0. 0.
0. 0. 0. 0.
0. 0. 0. 0.
0. 0. 0. 0.
0. 0. 0. 0.
0. 0. 0. 0.
0. 0. 0. 0.
0. 0. 0. 0.
0. 0. 0. 0.
0. 0. 0. 0.
0. 0. 0. 0.
0. 0. 0. 0.
0. 0. 0. 0.
0. 0. 0. 0.
0. 0. 0. 0.
0. 0. 0. 0.
0. 0. 0. 0.