<UPF version="2.0.1">
<PP_INFO>
NOTE!!!!
This file is trimmed with a mesh size of 600 from the original version.
Trimming performed at 2023-03-31 09:10:05.039276 by trim_upf.py version 0.1.0

This pseudopotential file has been produced using the code
ONCVPSP  (Optimized Norm-Conservinng Vanderbilt PSeudopotential)
scalar-relativistic version 3.3.0 08/16/2017 by D. R. Hamann
The code is available through a link at URL www.mat-simresearch.com.
Documentation with the package provides a full discription of the
input data below.
While it is not required under the terms of the GNU GPL, it is
suggested that you cite D. R. Hamann, Phys. Rev. B 88, 085117 (2013)
in any publication using these pseudopotentials.
<PP_INPUTFILE>
# ATOM AND REFERENCE CONFIGURATION
# atsym  z   nc   nv     iexc    psfile
O  8.00    1    2       4      upf
#
#   n    l    f        energy (Ha)
1    0    2.00
2    0    2.00
2    1    4.00
#
# PSEUDOPOTENTIAL AND OPTIMIZATION
# lmax
2
#
#   l,   rc,      ep,       ncon, nbas, qcut
0   1.35000  -0.88057    4    8   8.40000
1   1.45000  -0.33187    4    8   9.30000
2   1.25000   0.10000    4    8   6.00000
#
# LOCAL POTENTIAL
# lloc, lpopt,  rc(5),   dvloc0
4    5   1.20000      0.00000
#
# VANDERBILT-KLEINMAN-BYLANDER PROJECTORs
# l, nproj, debl
0    2   1.00000
1    2   1.00000
2    1   1.00000
#
# MODEL CORE CHARGE
# icmod, fcfact, rcfact
3   4.00000   1.50000
#
# LOG DERIVATIVE ANALYSIS
# epsh1, epsh2, depsh
-12.00   12.00    0.02
#
# OUTPUT GRID
# rlmax, drl
6.00    0.01
#
# TEST CONFIGURATIONS
# ncnf
0
# nvcnf
#   n    l    f
</PP_INPUTFILE>
</PP_INFO>
<!--                               -->
<!-- END OF HUMAN READABLE SECTION -->
<!--                               -->
<PP_HEADER
generated="Generated using ONCVPSP code by D. R. Hamann"
author="anonymous"
date="171031"
comment=""
element="O "
pseudo_type="NC"
relativistic="scalar"
is_ultrasoft="F"
is_paw="F"
is_coulomb="F"
has_so="F"
has_wfc="F"
has_gipaw="F"
core_correction="T"
functional="PBE"
z_valence="    6.00"
total_psenergy="  -3.15133366423E+01"
rho_cutoff="   9.35000000000E+00"
l_max="2"
l_local="-1"
mesh_size="   600"
number_of_wfc="2"
number_of_proj="5"/>
<PP_MESH>
<PP_R type="real"  size="600" columns="8">
0.0000    0.0100    0.0200    0.0300    0.0400    0.0500    0.0600    0.0700
0.0800    0.0900    0.1000    0.1100    0.1200    0.1300    0.1400    0.1500
0.1600    0.1700    0.1800    0.1900    0.2000    0.2100    0.2200    0.2300
0.2400    0.2500    0.2600    0.2700    0.2800    0.2900    0.3000    0.3100
0.3200    0.3300    0.3400    0.3500    0.3600    0.3700    0.3800    0.3900
0.4000    0.4100    0.4200    0.4300    0.4400    0.4500    0.4600    0.4700
0.4800    0.4900    0.5000    0.5100    0.5200    0.5300    0.5400    0.5500
0.5600    0.5700    0.5800    0.5900    0.6000    0.6100    0.6200    0.6300
0.6400    0.6500    0.6600    0.6700    0.6800    0.6900    0.7000    0.7100
0.7200    0.7300    0.7400    0.7500    0.7600    0.7700    0.7800    0.7900
0.8000    0.8100    0.8200    0.8300    0.8400    0.8500    0.8600    0.8700
0.8800    0.8900    0.9000    0.9100    0.9200    0.9300    0.9400    0.9500
0.9600    0.9700    0.9800    0.9900    1.0000    1.0100    1.0200    1.0300
1.0400    1.0500    1.0600    1.0700    1.0800    1.0900    1.1000    1.1100
1.1200    1.1300    1.1400    1.1500    1.1600    1.1700    1.1800    1.1900
1.2000    1.2100    1.2200    1.2300    1.2400    1.2500    1.2600    1.2700
1.2800    1.2900    1.3000    1.3100    1.3200    1.3300    1.3400    1.3500
1.3600    1.3700    1.3800    1.3900    1.4000    1.4100    1.4200    1.4300
1.4400    1.4500    1.4600    1.4700    1.4800    1.4900    1.5000    1.5100
1.5200    1.5300    1.5400    1.5500    1.5600    1.5700    1.5800    1.5900
1.6000    1.6100    1.6200    1.6300    1.6400    1.6500    1.6600    1.6700
1.6800    1.6900    1.7000    1.7100    1.7200    1.7300    1.7400    1.7500
1.7600    1.7700    1.7800    1.7900    1.8000    1.8100    1.8200    1.8300
1.8400    1.8500    1.8600    1.8700    1.8800    1.8900    1.9000    1.9100
1.9200    1.9300    1.9400    1.9500    1.9600    1.9700    1.9800    1.9900
2.0000    2.0100    2.0200    2.0300    2.0400    2.0500    2.0600    2.0700
2.0800    2.0900    2.1000    2.1100    2.1200    2.1300    2.1400    2.1500
2.1600    2.1700    2.1800    2.1900    2.2000    2.2100    2.2200    2.2300
2.2400    2.2500    2.2600    2.2700    2.2800    2.2900    2.3000    2.3100
2.3200    2.3300    2.3400    2.3500    2.3600    2.3700    2.3800    2.3900
2.4000    2.4100    2.4200    2.4300    2.4400    2.4500    2.4600    2.4700
2.4800    2.4900    2.5000    2.5100    2.5200    2.5300    2.5400    2.5500
2.5600    2.5700    2.5800    2.5900    2.6000    2.6100    2.6200    2.6300
2.6400    2.6500    2.6600    2.6700    2.6800    2.6900    2.7000    2.7100
2.7200    2.7300    2.7400    2.7500    2.7600    2.7700    2.7800    2.7900
2.8000    2.8100    2.8200    2.8300    2.8400    2.8500    2.8600    2.8700
2.8800    2.8900    2.9000    2.9100    2.9200    2.9300    2.9400    2.9500
2.9600    2.9700    2.9800    2.9900    3.0000    3.0100    3.0200    3.0300
3.0400    3.0500    3.0600    3.0700    3.0800    3.0900    3.1000    3.1100
3.1200    3.1300    3.1400    3.1500    3.1600    3.1700    3.1800    3.1900
3.2000    3.2100    3.2200    3.2300    3.2400    3.2500    3.2600    3.2700
3.2800    3.2900    3.3000    3.3100    3.3200    3.3300    3.3400    3.3500
3.3600    3.3700    3.3800    3.3900    3.4000    3.4100    3.4200    3.4300
3.4400    3.4500    3.4600    3.4700    3.4800    3.4900    3.5000    3.5100
3.5200    3.5300    3.5400    3.5500    3.5600    3.5700    3.5800    3.5900
3.6000    3.6100    3.6200    3.6300    3.6400    3.6500    3.6600    3.6700
3.6800    3.6900    3.7000    3.7100    3.7200    3.7300    3.7400    3.7500
3.7600    3.7700    3.7800    3.7900    3.8000    3.8100    3.8200    3.8300
3.8400    3.8500    3.8600    3.8700    3.8800    3.8900    3.9000    3.9100
3.9200    3.9300    3.9400    3.9500    3.9600    3.9700    3.9800    3.9900
4.0000    4.0100    4.0200    4.0300    4.0400    4.0500    4.0600    4.0700
4.0800    4.0900    4.1000    4.1100    4.1200    4.1300    4.1400    4.1500
4.1600    4.1700    4.1800    4.1900    4.2000    4.2100    4.2200    4.2300
4.2400    4.2500    4.2600    4.2700    4.2800    4.2900    4.3000    4.3100
4.3200    4.3300    4.3400    4.3500    4.3600    4.3700    4.3800    4.3900
4.4000    4.4100    4.4200    4.4300    4.4400    4.4500    4.4600    4.4700
4.4800    4.4900    4.5000    4.5100    4.5200    4.5300    4.5400    4.5500
4.5600    4.5700    4.5800    4.5900    4.6000    4.6100    4.6200    4.6300
4.6400    4.6500    4.6600    4.6700    4.6800    4.6900    4.7000    4.7100
4.7200    4.7300    4.7400    4.7500    4.7600    4.7700    4.7800    4.7900
4.8000    4.8100    4.8200    4.8300    4.8400    4.8500    4.8600    4.8700
4.8800    4.8900    4.9000    4.9100    4.9200    4.9300    4.9400    4.9500
4.9600    4.9700    4.9800    4.9900    5.0000    5.0100    5.0200    5.0300
5.0400    5.0500    5.0600    5.0700    5.0800    5.0900    5.1000    5.1100
5.1200    5.1300    5.1400    5.1500    5.1600    5.1700    5.1800    5.1900
5.2000    5.2100    5.2200    5.2300    5.2400    5.2500    5.2600    5.2700
5.2800    5.2900    5.3000    5.3100    5.3200    5.3300    5.3400    5.3500
5.3600    5.3700    5.3800    5.3900    5.4000    5.4100    5.4200    5.4300
5.4400    5.4500    5.4600    5.4700    5.4800    5.4900    5.5000    5.5100
5.5200    5.5300    5.5400    5.5500    5.5600    5.5700    5.5800    5.5900
5.6000    5.6100    5.6200    5.6300    5.6400    5.6500    5.6600    5.6700
5.6800    5.6900    5.7000    5.7100    5.7200    5.7300    5.7400    5.7500
5.7600    5.7700    5.7800    5.7900    5.8000    5.8100    5.8200    5.8300
5.8400    5.8500    5.8600    5.8700    5.8800    5.8900    5.9000    5.9100
5.9200    5.9300    5.9400    5.9500    5.9600    5.9700    5.9800    5.9900
</PP_R>
<PP_RAB type="real"  size="600" columns="8">
0.0100    0.0100    0.0100    0.0100    0.0100    0.0100    0.0100    0.0100
0.0100    0.0100    0.0100    0.0100    0.0100    0.0100    0.0100    0.0100
0.0100    0.0100    0.0100    0.0100    0.0100    0.0100    0.0100    0.0100
0.0100    0.0100    0.0100    0.0100    0.0100    0.0100    0.0100    0.0100
0.0100    0.0100    0.0100    0.0100    0.0100    0.0100    0.0100    0.0100
0.0100    0.0100    0.0100    0.0100    0.0100    0.0100    0.0100    0.0100
0.0100    0.0100    0.0100    0.0100    0.0100    0.0100    0.0100    0.0100
0.0100    0.0100    0.0100    0.0100    0.0100    0.0100    0.0100    0.0100
0.0100    0.0100    0.0100    0.0100    0.0100    0.0100    0.0100    0.0100
0.0100    0.0100    0.0100    0.0100    0.0100    0.0100    0.0100    0.0100
0.0100    0.0100    0.0100    0.0100    0.0100    0.0100    0.0100    0.0100
0.0100    0.0100    0.0100    0.0100    0.0100    0.0100    0.0100    0.0100
0.0100    0.0100    0.0100    0.0100    0.0100    0.0100    0.0100    0.0100
0.0100    0.0100    0.0100    0.0100    0.0100    0.0100    0.0100    0.0100
0.0100    0.0100    0.0100    0.0100    0.0100    0.0100    0.0100    0.0100
0.0100    0.0100    0.0100    0.0100    0.0100    0.0100    0.0100    0.0100
0.0100    0.0100    0.0100    0.0100    0.0100    0.0100    0.0100    0.0100
0.0100    0.0100    0.0100    0.0100    0.0100    0.0100    0.0100    0.0100
0.0100    0.0100    0.0100    0.0100    0.0100    0.0100    0.0100    0.0100
0.0100    0.0100    0.0100    0.0100    0.0100    0.0100    0.0100    0.0100
0.0100    0.0100    0.0100    0.0100    0.0100    0.0100    0.0100    0.0100
0.0100    0.0100    0.0100    0.0100    0.0100    0.0100    0.0100    0.0100
0.0100    0.0100    0.0100    0.0100    0.0100    0.0100    0.0100    0.0100
0.0100    0.0100    0.0100    0.0100    0.0100    0.0100    0.0100    0.0100
0.0100    0.0100    0.0100    0.0100    0.0100    0.0100    0.0100    0.0100
0.0100    0.0100    0.0100    0.0100    0.0100    0.0100    0.0100    0.0100
0.0100    0.0100    0.0100    0.0100    0.0100    0.0100    0.0100    0.0100
0.0100    0.0100    0.0100    0.0100    0.0100    0.0100    0.0100    0.0100
0.0100    0.0100    0.0100    0.0100    0.0100    0.0100    0.0100    0.0100
0.0100    0.0100    0.0100    0.0100    0.0100    0.0100    0.0100    0.0100
0.0100    0.0100    0.0100    0.0100    0.0100    0.0100    0.0100    0.0100
0.0100    0.0100    0.0100    0.0100    0.0100    0.0100    0.0100    0.0100
0.0100    0.0100    0.0100    0.0100    0.0100    0.0100    0.0100    0.0100
0.0100    0.0100    0.0100    0.0100    0.0100    0.0100    0.0100    0.0100
0.0100    0.0100    0.0100    0.0100    0.0100    0.0100    0.0100    0.0100
0.0100    0.0100    0.0100    0.0100    0.0100    0.0100    0.0100    0.0100
0.0100    0.0100    0.0100    0.0100    0.0100    0.0100    0.0100    0.0100
0.0100    0.0100    0.0100    0.0100    0.0100    0.0100    0.0100    0.0100
0.0100    0.0100    0.0100    0.0100    0.0100    0.0100    0.0100    0.0100
0.0100    0.0100    0.0100    0.0100    0.0100    0.0100    0.0100    0.0100
0.0100    0.0100    0.0100    0.0100    0.0100    0.0100    0.0100    0.0100
0.0100    0.0100    0.0100    0.0100    0.0100    0.0100    0.0100    0.0100
0.0100    0.0100    0.0100    0.0100    0.0100    0.0100    0.0100    0.0100
0.0100    0.0100    0.0100    0.0100    0.0100    0.0100    0.0100    0.0100
0.0100    0.0100    0.0100    0.0100    0.0100    0.0100    0.0100    0.0100
0.0100    0.0100    0.0100    0.0100    0.0100    0.0100    0.0100    0.0100
0.0100    0.0100    0.0100    0.0100    0.0100    0.0100    0.0100    0.0100
0.0100    0.0100    0.0100    0.0100    0.0100    0.0100    0.0100    0.0100
0.0100    0.0100    0.0100    0.0100    0.0100    0.0100    0.0100    0.0100
0.0100    0.0100    0.0100    0.0100    0.0100    0.0100    0.0100    0.0100
0.0100    0.0100    0.0100    0.0100    0.0100    0.0100    0.0100    0.0100
0.0100    0.0100    0.0100    0.0100    0.0100    0.0100    0.0100    0.0100
0.0100    0.0100    0.0100    0.0100    0.0100    0.0100    0.0100    0.0100
0.0100    0.0100    0.0100    0.0100    0.0100    0.0100    0.0100    0.0100
0.0100    0.0100    0.0100    0.0100    0.0100    0.0100    0.0100    0.0100
0.0100    0.0100    0.0100    0.0100    0.0100    0.0100    0.0100    0.0100
0.0100    0.0100    0.0100    0.0100    0.0100    0.0100    0.0100    0.0100
0.0100    0.0100    0.0100    0.0100    0.0100    0.0100    0.0100    0.0100
0.0100    0.0100    0.0100    0.0100    0.0100    0.0100    0.0100    0.0100
0.0100    0.0100    0.0100    0.0100    0.0100    0.0100    0.0100    0.0100
0.0100    0.0100    0.0100    0.0100    0.0100    0.0100    0.0100    0.0100
0.0100    0.0100    0.0100    0.0100    0.0100    0.0100    0.0100    0.0100
0.0100    0.0100    0.0100    0.0100    0.0100    0.0100    0.0100    0.0100
0.0100    0.0100    0.0100    0.0100    0.0100    0.0100    0.0100    0.0100
0.0100    0.0100    0.0100    0.0100    0.0100    0.0100    0.0100    0.0100
0.0100    0.0100    0.0100    0.0100    0.0100    0.0100    0.0100    0.0100
0.0100    0.0100    0.0100    0.0100    0.0100    0.0100    0.0100    0.0100
0.0100    0.0100    0.0100    0.0100    0.0100    0.0100    0.0100    0.0100
0.0100    0.0100    0.0100    0.0100    0.0100    0.0100    0.0100    0.0100
0.0100    0.0100    0.0100    0.0100    0.0100    0.0100    0.0100    0.0100
0.0100    0.0100    0.0100    0.0100    0.0100    0.0100    0.0100    0.0100
0.0100    0.0100    0.0100    0.0100    0.0100    0.0100    0.0100    0.0100
0.0100    0.0100    0.0100    0.0100    0.0100    0.0100    0.0100    0.0100
0.0100    0.0100    0.0100    0.0100    0.0100    0.0100    0.0100    0.0100
0.0100    0.0100    0.0100    0.0100    0.0100    0.0100    0.0100    0.0100
</PP_RAB>
</PP_MESH>
<PP_LOCAL type="real"  size="600" columns="4">
-2.0583172970E+01   -2.0581378994E+01   -2.0576039501E+01   -2.0567278791E+01
-2.0555294503E+01   -2.0540344412E+01   -2.0522730105E+01   -2.0502779174E+01
-2.0480827565E+01   -2.0457203491E+01   -2.0432213898E+01   -2.0406134062E+01
-2.0379200464E+01   -2.0351606773E+01   -2.0323502501E+01   -2.0294993803E+01
-2.0266145852E+01   -2.0236986237E+01   -2.0207508932E+01   -2.0177678465E+01
-2.0147434026E+01   -2.0116693330E+01   -2.0085356144E+01   -2.0053307420E+01
-2.0020420061E+01   -1.9986557311E+01   -1.9951574839E+01   -1.9915322534E+01
-1.9877646072E+01   -1.9838388270E+01   -1.9797390257E+01   -1.9754492472E+01
-1.9709535495E+01   -1.9662360720E+01   -1.9612810874E+01   -1.9560730417E+01
-1.9505965859E+01   -1.9448366086E+01   -1.9387782782E+01   -1.9324071111E+01
-1.9257090796E+01   -1.9186707760E+01   -1.9112796478E+01   -1.9035243094E+01
-1.8953949307E+01   -1.8868836873E+01   -1.8779852446E+01   -1.8686972347E+01
-1.8590206738E+01   -1.8489602650E+01   -1.8385245357E+01   -1.8277257730E+01
-1.8165797437E+01   -1.8051052109E+01   -1.7933232885E+01   -1.7812566962E+01
-1.7689289880E+01   -1.7563638294E+01   -1.7435843842E+01   -1.7306128538E+01
-1.7174701852E+01   -1.7041759428E+01   -1.6907483196E+01   -1.6772042527E+01
-1.6635596032E+01   -1.6498293619E+01   -1.6360278496E+01   -1.6221688881E+01
-1.6082659267E+01   -1.5943321189E+01   -1.5803803479E+01   -1.5664232092E+01
-1.5524729576E+01   -1.5385414314E+01   -1.5246399644E+01   -1.5107792968E+01
-1.4969694946E+01   -1.4832198843E+01   -1.4695390068E+01   -1.4559345945E+01
-1.4424135703E+01   -1.4289820673E+01   -1.4156454674E+01   -1.4024084543E+01
-1.3892750774E+01   -1.3762488236E+01   -1.3633326912E+01   -1.3505292653E+01
-1.3378407908E+01   -1.3252692396E+01   -1.3128163735E+01   -1.3004837988E+01
-1.2882730130E+01   -1.2761854444E+01   -1.2642224829E+01   -1.2523855030E+01
-1.2406758798E+01   -1.2290949984E+01   -1.2176442563E+01   -1.2063250616E+01
-1.1951388250E+01   -1.1840869493E+01   -1.1731708140E+01   -1.1623917581E+01
-1.1517510607E+01   -1.1412499196E+01   -1.1308894292E+01   -1.1206705579E+01
-1.1105941249E+01   -1.1006607783E+01   -1.0908709726E+01   -1.0812249479E+01
-1.0717227101E+01   -1.0623640119E+01   -1.0531483362E+01   -1.0440748803E+01
-1.0351425416E+01   -1.0263499052E+01   -1.0176952325E+01   -1.0091764567E+01
-1.0007911608E+01   -9.9253657924E+00   -9.8440978291E+00   -9.7640786201E+00
-9.6852805366E+00   -9.6076770380E+00   -9.5312427257E+00   -9.4559533223E+00
-9.3817856598E+00   -9.3087176520E+00   -9.2367282529E+00   -9.1657975155E+00
-9.0959063532E+00   -9.0270365963E+00   -8.9591705725E+00   -8.8922935214E+00
-8.8263963460E+00   -8.7614756192E+00   -8.6975297438E+00   -8.6345476790E+00
-8.5725126109E+00   -8.5114060722E+00   -8.4512123384E+00   -8.3919182386E+00
-8.3335084105E+00   -8.2759621072E+00   -8.2192516908E+00   -8.1633390178E+00
-8.1081801081E+00   -8.0537542174E+00   -8.0000564648E+00   -7.9470721413E+00
-7.8947852582E+00   -7.8431826905E+00   -7.7922512508E+00   -7.7419778714E+00
-7.6923498188E+00   -7.6433546652E+00   -7.5949802705E+00   -7.5472147843E+00
-7.5000466445E+00   -7.4534645764E+00   -7.4074575898E+00   -7.3620149764E+00
-7.3171263074E+00   -7.2727814341E+00   -7.2289704393E+00   -7.1856836657E+00
-7.1429119174E+00   -7.1006461328E+00   -7.0588768333E+00   -7.0175948769E+00
-6.9767921600E+00   -6.9364609956E+00   -6.8965941080E+00   -6.8571842103E+00
-6.8182228998E+00   -6.7797016224E+00   -6.7416128980E+00   -6.7039497645E+00
-6.6667051817E+00   -6.6298721511E+00   -6.5934438742E+00   -6.5574137256E+00
-6.5217752150E+00   -6.4865219910E+00   -6.4516478391E+00   -6.4171466778E+00
-6.3830125552E+00   -6.3492396449E+00   -6.3158222437E+00   -6.2827547675E+00
-6.2500317485E+00   -6.2176478325E+00   -6.1855977754E+00   -6.1538764410E+00
-6.1224787975E+00   -6.0913999156E+00   -6.0606349656E+00   -6.0301792146E+00
-6.0000280245E+00   -5.9701768497E+00   -5.9406212343E+00   -5.9113568104E+00
-5.8823792957E+00   -5.8536844915E+00   -5.8252682805E+00   -5.7971266250E+00
-5.7692555651E+00   -5.7416512166E+00   -5.7143097692E+00   -5.6872274849E+00
-5.6604006964E+00   -5.6338258049E+00   -5.6074992792E+00   -5.5814176537E+00
-5.5555775270E+00   -5.5299755602E+00   -5.5046084760E+00   -5.4794730567E+00
-5.4545661432E+00   -5.4298846337E+00   -5.4054254820E+00   -5.3811856968E+00
-5.3571623402E+00   -5.3333525263E+00   -5.3097534206E+00   -5.2863622383E+00
-5.2631762436E+00   -5.2401927484E+00   -5.2174091114E+00   -5.1948227370E+00
-5.1724310744E+00   -5.1502316167E+00   -5.1282218995E+00   -5.1063995007E+00
-5.0847620392E+00   -5.0633071738E+00   -5.0420326031E+00   -5.0209360639E+00
-5.0000153307E+00   -4.9792682152E+00   -4.9586925651E+00   -4.9382862635E+00
-4.9180472282E+00   -4.8979734110E+00   -4.8780627973E+00   -4.8583134046E+00
-4.8387232828E+00   -4.8192905130E+00   -4.8000132069E+00   -4.7808895064E+00
-4.7619175828E+00   -4.7430956366E+00   -4.7244218961E+00   -4.7058946180E+00
-4.6875120856E+00   -4.6692726095E+00   -4.6511745264E+00   -4.6332161986E+00
-4.6153960133E+00   -4.5977123828E+00   -4.5801637431E+00   -4.5627485547E+00
-4.5454653010E+00   -4.5283124886E+00   -4.5112886463E+00   -4.4943923251E+00
-4.4776220973E+00   -4.4609765568E+00   -4.4444543181E+00   -4.4280540163E+00
-4.4117743065E+00   -4.3956138635E+00   -4.3795713814E+00   -4.3636455735E+00
-4.3478351715E+00   -4.3321389256E+00   -4.3165556038E+00   -4.3010839919E+00
-4.2857228930E+00   -4.2704711272E+00   -4.2553275315E+00   -4.2402909591E+00
-4.2253602796E+00   -4.2105343782E+00   -4.1958121558E+00   -4.1811925288E+00
-4.1666744284E+00   -4.1522568007E+00   -4.1379386064E+00   -4.1237188202E+00
-4.1095964312E+00   -4.0955704422E+00   -4.0816398694E+00   -4.0678037425E+00
-4.0540611043E+00   -4.0404110104E+00   -4.0268525292E+00   -4.0133847414E+00
-4.0000067402E+00   -3.9867176307E+00   -3.9735165297E+00   -3.9604025659E+00
-3.9473748795E+00   -3.9344326216E+00   -3.9215749549E+00   -3.9088010527E+00
-3.8961100991E+00   -3.8835012886E+00   -3.8709738265E+00   -3.8585269280E+00
-3.8461598183E+00   -3.8338717328E+00   -3.8216619164E+00   -3.8095296237E+00
-3.7974741186E+00   -3.7854946746E+00   -3.7735905739E+00   -3.7617611081E+00
-3.7500055774E+00   -3.7383232908E+00   -3.7267135660E+00   -3.7151757289E+00
-3.7037091138E+00   -3.6923130635E+00   -3.6809869284E+00   -3.6697300671E+00
-3.6585418461E+00   -3.6474216393E+00   -3.6363688286E+00   -3.6253828029E+00
-3.6144629589E+00   -3.6036087003E+00   -3.5928194379E+00   -3.5820945898E+00
-3.5714335807E+00   -3.5608358424E+00   -3.5503008132E+00   -3.5398279382E+00
-3.5294166690E+00   -3.5190664635E+00   -3.5087767862E+00   -3.4985471075E+00
-3.4883769043E+00   -3.4782656593E+00   -3.4682128613E+00   -3.4582180050E+00
-3.4482805910E+00   -3.4384001253E+00   -3.4285761199E+00   -3.4188080922E+00
-3.4090955650E+00   -3.3994380668E+00   -3.3898351311E+00   -3.3802862969E+00
-3.3707911081E+00   -3.3613491141E+00   -3.3519598690E+00   -3.3426229319E+00
-3.3333378671E+00   -3.3241042434E+00   -3.3149216345E+00   -3.3057896188E+00
-3.2967077792E+00   -3.2876757035E+00   -3.2786929835E+00   -3.2697592160E+00
-3.2608740018E+00   -3.2520369461E+00   -3.2432476585E+00   -3.2345057528E+00
-3.2258108467E+00   -3.2171625622E+00   -3.2085605254E+00   -3.2000043664E+00
-3.1914937189E+00   -3.1830282209E+00   -3.1746075140E+00   -3.1662312437E+00
-3.1578990592E+00   -3.1496106132E+00   -3.1413655624E+00   -3.1331635667E+00
-3.1250042899E+00   -3.1168873989E+00   -3.1088125645E+00   -3.1007794605E+00
-3.0927877643E+00   -3.0848371566E+00   -3.0769273213E+00   -3.0690579455E+00
-3.0612287196E+00   -3.0534393371E+00   -3.0456894946E+00   -3.0379788919E+00
-3.0303072316E+00   -3.0226742194E+00   -3.0150795641E+00   -3.0075229772E+00
-3.0000041732E+00   -2.9925228695E+00   -2.9850787862E+00   -2.9776716461E+00
-2.9703011751E+00   -2.9629671013E+00   -2.9556691560E+00   -2.9484070728E+00
-2.9411805880E+00   -2.9339894404E+00   -2.9268333715E+00   -2.9197121253E+00
-2.9126254482E+00   -2.9055730891E+00   -2.8985547993E+00   -2.8915703324E+00
-2.8846194447E+00   -2.8777018945E+00   -2.8708174425E+00   -2.8639658518E+00
-2.8571468876E+00   -2.8503603174E+00   -2.8436059110E+00   -2.8368834403E+00
-2.8301926792E+00   -2.8235334040E+00   -2.8169053928E+00   -2.8103084261E+00
-2.8037422863E+00   -2.7972067577E+00   -2.7907016268E+00   -2.7842266821E+00
-2.7777817138E+00   -2.7713665144E+00   -2.7649808780E+00   -2.7586246007E+00
-2.7522974805E+00   -2.7459993173E+00   -2.7397299128E+00   -2.7334890703E+00
-2.7272765952E+00   -2.7210922945E+00   -2.7149359769E+00   -2.7088074530E+00
-2.7027065349E+00   -2.6966330366E+00   -2.6905867736E+00   -2.6845675631E+00
-2.6785752240E+00   -2.6726095767E+00   -2.6666704433E+00   -2.6607576474E+00
-2.6548710142E+00   -2.6490103705E+00   -2.6431755444E+00   -2.6373663658E+00
-2.6315826660E+00   -2.6258242777E+00   -2.6200910351E+00   -2.6143827738E+00
-2.6086993309E+00   -2.6030405450E+00   -2.5974062558E+00   -2.5917963048E+00
-2.5862105344E+00   -2.5806487888E+00   -2.5751109133E+00   -2.5695967544E+00
-2.5641061602E+00   -2.5586389800E+00   -2.5531950643E+00   -2.5477742649E+00
-2.5423764349E+00   -2.5370014286E+00   -2.5316491016E+00   -2.5263193106E+00
-2.5210119135E+00   -2.5157267697E+00   -2.5104637393E+00   -2.5052226839E+00
-2.5000034661E+00   -2.4948059498E+00   -2.4896299999E+00   -2.4844754823E+00
-2.4793422644E+00   -2.4742302143E+00   -2.4691392013E+00   -2.4640690959E+00
-2.4590197696E+00   -2.4539910948E+00   -2.4489829452E+00   -2.4439951952E+00
-2.4390277206E+00   -2.4340803980E+00   -2.4291531049E+00   -2.4242457200E+00
-2.4193581229E+00   -2.4144901941E+00   -2.4096418152E+00   -2.4048128686E+00
-2.4000032376E+00   -2.3952128068E+00   -2.3904414613E+00   -2.3856890872E+00
-2.3809555717E+00   -2.3762408028E+00   -2.3715446693E+00   -2.3668670608E+00
-2.3622078681E+00   -2.3575669826E+00   -2.3529442966E+00   -2.3483397032E+00
-2.3437530965E+00   -2.3391843712E+00   -2.3346334230E+00   -2.3301001483E+00
-2.3255844444E+00   -2.3210862094E+00   -2.3166053420E+00   -2.3121417419E+00
-2.3076953094E+00   -2.3032659457E+00   -2.2988535527E+00   -2.2944580330E+00
-2.2900792901E+00   -2.2857172281E+00   -2.2813717519E+00   -2.2770427669E+00
-2.2727301796E+00   -2.2684338970E+00   -2.2641538267E+00   -2.2598898771E+00
-2.2556419574E+00   -2.2514099773E+00   -2.2471938473E+00   -2.2429934785E+00
-2.2388087827E+00   -2.2346396723E+00   -2.2304860604E+00   -2.2263478608E+00
-2.2222249879E+00   -2.2181173565E+00   -2.2140248825E+00   -2.2099474820E+00
-2.2058850719E+00   -2.2018375697E+00   -2.1978048935E+00   -2.1937869620E+00
-2.1897836944E+00   -2.1857950107E+00   -2.1818208313E+00   -2.1778610771E+00
-2.1739156699E+00   -2.1699845318E+00   -2.1660675855E+00   -2.1621647542E+00
-2.1582759620E+00   -2.1544011330E+00   -2.1505401923E+00   -2.1466930654E+00
-2.1428596781E+00   -2.1390399571E+00   -2.1352338295E+00   -2.1314412226E+00
-2.1276620647E+00   -2.1238962844E+00   -2.1201438107E+00   -2.1164045732E+00
-2.1126785020E+00   -2.1089655278E+00   -2.1052655815E+00   -2.1015785947E+00
-2.0979044995E+00   -2.0942432283E+00   -2.0905947142E+00   -2.0869588905E+00
-2.0833356912E+00   -2.0797250507E+00   -2.0761269037E+00   -2.0725411856E+00
-2.0689678320E+00   -2.0654067790E+00   -2.0618579634E+00   -2.0583213221E+00
-2.0547967926E+00   -2.0512843127E+00   -2.0477838209E+00   -2.0442952557E+00
-2.0408185564E+00   -2.0373536625E+00   -2.0339005141E+00   -2.0304590514E+00
-2.0270292153E+00   -2.0236109469E+00   -2.0202041878E+00   -2.0168088801E+00
-2.0134249659E+00   -2.0100523882E+00   -2.0066910900E+00   -2.0033410148E+00
</PP_LOCAL>
<PP_NONLOCAL>
<PP_BETA.1
type="real"
size="600"
columns="4"
index="1"
angular_momentum="0"
cutoff_radius_index=" 152"
cutoff_radius="    1.5100000000E+00" >
-2.2498126695E-09    9.6628298963E-02    1.9288513881E-01    2.8840191059E-01
3.8281566855E-01    4.7577186955E-01    5.6692700343E-01    6.5595108070E-01
7.4252994618E-01    8.2636738993E-01    9.0718702993E-01    9.8473394474E-01
1.0587760381E+00    1.1291051219E+00    1.1955377073E+00    1.2579155013E+00
1.3161056052E+00    1.3700004229E+00    1.4195172850E+00    1.4645978031E+00
1.5052069721E+00    1.5413320393E+00    1.5729811676E+00    1.6001819173E+00
1.6229795790E+00    1.6414353864E+00    1.6556246462E+00    1.6656348154E+00
1.6715635632E+00    1.6735168507E+00    1.6716070612E+00    1.6659512146E+00
1.6566692939E+00    1.6438827125E+00    1.6277129461E+00    1.6082803506E+00
1.5857031830E+00    1.5600968385E+00    1.5315733130E+00    1.5002408950E+00
1.4662040879E+00    1.4295637565E+00    1.3904174908E+00    1.3488601717E+00
1.3049847230E+00    1.2588830279E+00    1.2106469848E+00    1.1603696766E+00
1.1081466224E+00    1.0540770796E+00    9.9826536391E-01    9.4082215304E-01
8.8186573920E-01    8.2152319749E-01    7.5993143701E-01    6.9723810383E-01
6.3360230704E-01    5.6919514197E-01    5.0419998799E-01    4.3881256204E-01
3.7324071324E-01    3.0770394850E-01    2.4243268369E-01    1.7766721995E-01
1.1365644973E-01    5.0656302198E-02   -1.1072057380E-02   -7.1264254979E-02
-1.2965493782E-01   -1.8598017894E-01   -2.3998002438E-01   -2.9140114752E-01
-3.3999957259E-01   -3.8554342685E-01   -4.2781567954E-01   -4.6661682478E-01
-5.0176746515E-01   -5.3311075364E-01   -5.6051465221E-01   -5.8387396779E-01
-6.0311212853E-01   -6.1818266667E-01   -6.2907037820E-01   -6.3579213360E-01
-6.3839731910E-01   -6.3696789286E-01   -6.3161804638E-01   -6.2249346675E-01
-6.0977020197E-01   -5.9365313687E-01   -5.7437409381E-01   -5.5218957751E-01
-5.2737818954E-01   -5.0023774279E-01   -4.7108211138E-01   -4.4023785563E-01
-4.0804066554E-01   -3.7483166938E-01   -3.4095365637E-01   -3.0674726402E-01
-2.7254718175E-01   -2.3867842252E-01   -2.0545271321E-01   -1.7316505332E-01
-1.4209048911E-01   -1.1248114702E-01   -8.4563566973E-02   -5.8536371091E-02
-3.4568298820E-02   -1.2796633602E-02    6.6739599289E-03    2.3772174621E-02
3.8460369748E-02    5.0734450232E-02    6.0623323953E-02    6.8187949943E-02
7.3519998876E-02    7.6740154508E-02    7.7996089215E-02    7.7460061808E-02
7.5326557375E-02    7.1809368071E-02    6.7135980530E-02    6.1541473870E-02
5.5262910654E-02    4.8535932798E-02    4.1590834283E-02    3.4648842005E-02
2.7918541430E-02    2.1592529036E-02    1.5844324677E-02    1.0826995440E-02
6.6657735354E-03    3.4410414335E-03    1.2960956223E-03    2.6054450677E-04
-3.2621565883E-05   -8.9093897957E-06    1.6477778288E-05   -1.2613158925E-06
-2.0277582212E-06   -1.2404542338E-07   -3.1482168785E-08    0.0000000000E+00
0.0000000000E+00    0.0000000000E+00    0.0000000000E+00    0.0000000000E+00
0.0000000000E+00    0.0000000000E+00    0.0000000000E+00    0.0000000000E+00
0. 0. 0. 0.
0. 0. 0. 0.
0. 0. 0. 0.
0. 0. 0. 0.
0. 0. 0. 0.
0. 0. 0. 0.
0. 0. 0. 0.
0. 0. 0. 0.
0. 0. 0. 0.
0. 0. 0. 0.
0. 0. 0. 0.
0. 0. 0. 0.
0. 0. 0. 0.
0. 0. 0. 0.
0. 0. 0. 0.
0. 0. 0. 0.
0. 0. 0. 0.
0. 0. 0. 0.
0. 0. 0. 0.
0. 0. 0. 0.
0. 0. 0. 0.
0. 0. 0. 0.
0. 0. 0. 0.
0. 0. 0. 0.
0. 0. 0. 0.
0. 0. 0. 0.
0. 0. 0. 0.
0. 0. 0. 0.
0. 0. 0. 0.
0. 0. 0. 0.
0. 0. 0. 0.
0. 0. 0. 0.
0. 0. 0. 0.
0. 0. 0. 0.
0. 0. 0. 0.
0. 0. 0. 0.
0. 0. 0. 0.
0. 0. 0. 0.
0. 0. 0. 0.
0. 0. 0. 0.
0. 0. 0. 0.
0. 0. 0. 0.
0. 0. 0. 0.
0. 0. 0. 0.
0. 0. 0. 0.
0. 0. 0. 0.
0. 0. 0. 0.
0. 0. 0. 0.
0. 0. 0. 0.
0. 0. 0. 0.
0. 0. 0. 0.
0. 0. 0. 0.
0. 0. 0. 0.
0. 0. 0. 0.
0. 0. 0. 0.
0. 0. 0. 0.
0. 0. 0. 0.
0. 0. 0. 0.
0. 0. 0. 0.
0. 0. 0. 0.
0. 0. 0. 0.
0. 0. 0. 0.
0. 0. 0. 0.
0. 0. 0. 0.
0. 0. 0. 0.
0. 0. 0. 0.
0. 0. 0. 0.
0. 0. 0. 0.
0. 0. 0. 0.
0. 0. 0. 0.
0. 0. 0. 0.
0. 0. 0. 0.
0. 0. 0. 0.
0. 0. 0. 0.
0. 0. 0. 0.
0. 0. 0. 0.
0. 0. 0. 0.
0. 0. 0. 0.
0. 0. 0. 0.
0. 0. 0. 0.
0. 0. 0. 0.
0. 0. 0. 0.
0. 0. 0. 0.
0. 0. 0. 0.
0. 0. 0. 0.
0. 0. 0. 0.
0. 0. 0. 0.
0. 0. 0. 0.
0. 0. 0. 0.
0. 0. 0. 0.
0. 0. 0. 0.
0. 0. 0. 0.
0. 0. 0. 0.
0. 0. 0. 0.
0. 0. 0. 0.
0. 0. 0. 0.
0. 0. 0. 0.
0. 0. 0. 0.
0. 0. 0. 0.
0. 0. 0. 0.
0. 0. 0. 0.
0. 0. 0. 0.
0. 0. 0. 0.
0. 0. 0. 0.
0. 0. 0. 0.
0. 0. 0. 0.
0. 0. 0. 0.
0. 0. 0. 0.