<UPF version="2.0.1">
<PP_INFO>
NOTE!!!!
This file is trimmed with a mesh size of 600 from the original version.
Trimming performed at 2023-03-31 09:10:05.057459 by trim_upf.py version 0.1.0

This pseudopotential file has been produced using the code
ONCVPSP  (Optimized Norm-Conservinng Vanderbilt PSeudopotential)
scalar-relativistic version 3.3.0 08/16/2017 by D. R. Hamann
The code is available through a link at URL www.mat-simresearch.com.
Documentation with the package provides a full discription of the
input data below.
While it is not required under the terms of the GNU GPL, it is
suggested that you cite D. R. Hamann, Phys. Rev. B 88, 085117 (2013)
in any publication using these pseudopotentials.
<PP_INPUTFILE>
# ATOM AND REFERENCE CONFIGURATION
# atsym  z   nc   nv     iexc    psfile
Os 76.00   10    4       4      upf
#
#   n    l    f        energy (Ha)
1    0    2.00
2    0    2.00
2    1    6.00
3    0    2.00
3    1    6.00
3    2   10.00
4    0    2.00
4    1    6.00
4    2   10.00
4    3   14.00
5    0    2.00
5    1    6.00
5    2    6.00
6    0    2.00
#
# PSEUDOPOTENTIAL AND OPTIMIZATION
# lmax
3
#
#   l,   rc,      ep,       ncon, nbas, qcut
0   1.50000  -3.36448    4    8   8.20000
1   1.55000  -1.86833    4    8   8.40000
2   1.55000  -0.22987    4    8   8.40000
3   2.25000   0.50000    4    8   6.80000
#
# LOCAL POTENTIAL
# lloc, lpopt,  rc(5),   dvloc0
4    5   1.50000      0.00000
#
# VANDERBILT-KLEINMAN-BYLANDER PROJECTORs
# l, nproj, debl
0    2   3.13859
1    2   2.00000
2    2   1.50000
3    2   3.00000
#
# MODEL CORE CHARGE
# icmod, fcfact, rcfact
3   5.00000   1.40000
#
# LOG DERIVATIVE ANALYSIS
# epsh1, epsh2, depsh
-12.00   12.00    0.02
#
# OUTPUT GRID
# rlmax, drl
6.00    0.01
#
# TEST CONFIGURATIONS
# ncnf
0
# nvcnf
#   n    l    f
</PP_INPUTFILE>
</PP_INFO>
<!--                               -->
<!-- END OF HUMAN READABLE SECTION -->
<!--                               -->
<PP_HEADER
generated="Generated using ONCVPSP code by D. R. Hamann"
author="anonymous"
date="171031"
comment=""
element="Os"
pseudo_type="NC"
relativistic="scalar"
is_ultrasoft="F"
is_paw="F"
is_coulomb="F"
has_so="F"
has_wfc="F"
has_gipaw="F"
core_correction="T"
functional="PBE"
z_valence="   16.00"
total_psenergy="  -1.84495283232E+02"
rho_cutoff="   1.34300000000E+01"
l_max="3"
l_local="-1"
mesh_size="   600"
number_of_wfc="4"
number_of_proj="8"/>
<PP_MESH>
<PP_R type="real"  size="600" columns="8">
0.0000    0.0100    0.0200    0.0300    0.0400    0.0500    0.0600    0.0700
0.0800    0.0900    0.1000    0.1100    0.1200    0.1300    0.1400    0.1500
0.1600    0.1700    0.1800    0.1900    0.2000    0.2100    0.2200    0.2300
0.2400    0.2500    0.2600    0.2700    0.2800    0.2900    0.3000    0.3100
0.3200    0.3300    0.3400    0.3500    0.3600    0.3700    0.3800    0.3900
0.4000    0.4100    0.4200    0.4300    0.4400    0.4500    0.4600    0.4700
0.4800    0.4900    0.5000    0.5100    0.5200    0.5300    0.5400    0.5500
0.5600    0.5700    0.5800    0.5900    0.6000    0.6100    0.6200    0.6300
0.6400    0.6500    0.6600    0.6700    0.6800    0.6900    0.7000    0.7100
0.7200    0.7300    0.7400    0.7500    0.7600    0.7700    0.7800    0.7900
0.8000    0.8100    0.8200    0.8300    0.8400    0.8500    0.8600    0.8700
0.8800    0.8900    0.9000    0.9100    0.9200    0.9300    0.9400    0.9500
0.9600    0.9700    0.9800    0.9900    1.0000    1.0100    1.0200    1.0300
1.0400    1.0500    1.0600    1.0700    1.0800    1.0900    1.1000    1.1100
1.1200    1.1300    1.1400    1.1500    1.1600    1.1700    1.1800    1.1900
1.2000    1.2100    1.2200    1.2300    1.2400    1.2500    1.2600    1.2700
1.2800    1.2900    1.3000    1.3100    1.3200    1.3300    1.3400    1.3500
1.3600    1.3700    1.3800    1.3900    1.4000    1.4100    1.4200    1.4300
1.4400    1.4500    1.4600    1.4700    1.4800    1.4900    1.5000    1.5100
1.5200    1.5300    1.5400    1.5500    1.5600    1.5700    1.5800    1.5900
1.6000    1.6100    1.6200    1.6300    1.6400    1.6500    1.6600    1.6700
1.6800    1.6900    1.7000    1.7100    1.7200    1.7300    1.7400    1.7500
1.7600    1.7700    1.7800    1.7900    1.8000    1.8100    1.8200    1.8300
1.8400    1.8500    1.8600    1.8700    1.8800    1.8900    1.9000    1.9100
1.9200    1.9300    1.9400    1.9500    1.9600    1.9700    1.9800    1.9900
2.0000    2.0100    2.0200    2.0300    2.0400    2.0500    2.0600    2.0700
2.0800    2.0900    2.1000    2.1100    2.1200    2.1300    2.1400    2.1500
2.1600    2.1700    2.1800    2.1900    2.2000    2.2100    2.2200    2.2300
2.2400    2.2500    2.2600    2.2700    2.2800    2.2900    2.3000    2.3100
2.3200    2.3300    2.3400    2.3500    2.3600    2.3700    2.3800    2.3900
2.4000    2.4100    2.4200    2.4300    2.4400    2.4500    2.4600    2.4700
2.4800    2.4900    2.5000    2.5100    2.5200    2.5300    2.5400    2.5500
2.5600    2.5700    2.5800    2.5900    2.6000    2.6100    2.6200    2.6300
2.6400    2.6500    2.6600    2.6700    2.6800    2.6900    2.7000    2.7100
2.7200    2.7300    2.7400    2.7500    2.7600    2.7700    2.7800    2.7900
2.8000    2.8100    2.8200    2.8300    2.8400    2.8500    2.8600    2.8700
2.8800    2.8900    2.9000    2.9100    2.9200    2.9300    2.9400    2.9500
2.9600    2.9700    2.9800    2.9900    3.0000    3.0100    3.0200    3.0300
3.0400    3.0500    3.0600    3.0700    3.0800    3.0900    3.1000    3.1100
3.1200    3.1300    3.1400    3.1500    3.1600    3.1700    3.1800    3.1900
3.2000    3.2100    3.2200    3.2300    3.2400    3.2500    3.2600    3.2700
3.2800    3.2900    3.3000    3.3100    3.3200    3.3300    3.3400    3.3500
3.3600    3.3700    3.3800    3.3900    3.4000    3.4100    3.4200    3.4300
3.4400    3.4500    3.4600    3.4700    3.4800    3.4900    3.5000    3.5100
3.5200    3.5300    3.5400    3.5500    3.5600    3.5700    3.5800    3.5900
3.6000    3.6100    3.6200    3.6300    3.6400    3.6500    3.6600    3.6700
3.6800    3.6900    3.7000    3.7100    3.7200    3.7300    3.7400    3.7500
3.7600    3.7700    3.7800    3.7900    3.8000    3.8100    3.8200    3.8300
3.8400    3.8500    3.8600    3.8700    3.8800    3.8900    3.9000    3.9100
3.9200    3.9300    3.9400    3.9500    3.9600    3.9700    3.9800    3.9900
4.0000    4.0100    4.0200    4.0300    4.0400    4.0500    4.0600    4.0700
4.0800    4.0900    4.1000    4.1100    4.1200    4.1300    4.1400    4.1500
4.1600    4.1700    4.1800    4.1900    4.2000    4.2100    4.2200    4.2300
4.2400    4.2500    4.2600    4.2700    4.2800    4.2900    4.3000    4.3100
4.3200    4.3300    4.3400    4.3500    4.3600    4.3700    4.3800    4.3900
4.4000    4.4100    4.4200    4.4300    4.4400    4.4500    4.4600    4.4700
4.4800    4.4900    4.5000    4.5100    4.5200    4.5300    4.5400    4.5500
4.5600    4.5700    4.5800    4.5900    4.6000    4.6100    4.6200    4.6300
4.6400    4.6500    4.6600    4.6700    4.6800    4.6900    4.7000    4.7100
4.7200    4.7300    4.7400    4.7500    4.7600    4.7700    4.7800    4.7900
4.8000    4.8100    4.8200    4.8300    4.8400    4.8500    4.8600    4.8700
4.8800    4.8900    4.9000    4.9100    4.9200    4.9300    4.9400    4.9500
4.9600    4.9700    4.9800    4.9900    5.0000    5.0100    5.0200    5.0300
5.0400    5.0500    5.0600    5.0700    5.0800    5.0900    5.1000    5.1100
5.1200    5.1300    5.1400    5.1500    5.1600    5.1700    5.1800    5.1900
5.2000    5.2100    5.2200    5.2300    5.2400    5.2500    5.2600    5.2700
5.2800    5.2900    5.3000    5.3100    5.3200    5.3300    5.3400    5.3500
5.3600    5.3700    5.3800    5.3900    5.4000    5.4100    5.4200    5.4300
5.4400    5.4500    5.4600    5.4700    5.4800    5.4900    5.5000    5.5100
5.5200    5.5300    5.5400    5.5500    5.5600    5.5700    5.5800    5.5900
5.6000    5.6100    5.6200    5.6300    5.6400    5.6500    5.6600    5.6700
5.6800    5.6900    5.7000    5.7100    5.7200    5.7300    5.7400    5.7500
5.7600    5.7700    5.7800    5.7900    5.8000    5.8100    5.8200    5.8300
5.8400    5.8500    5.8600    5.8700    5.8800    5.8900    5.9000    5.9100
5.9200    5.9300    5.9400    5.9500    5.9600    5.9700    5.9800    5.9900
</PP_R>
<PP_RAB type="real"  size="600" columns="8">
0.0100    0.0100    0.0100    0.0100    0.0100    0.0100    0.0100    0.0100
0.0100    0.0100    0.0100    0.0100    0.0100    0.0100    0.0100    0.0100
0.0100    0.0100    0.0100    0.0100    0.0100    0.0100    0.0100    0.0100
0.0100    0.0100    0.0100    0.0100    0.0100    0.0100    0.0100    0.0100
0.0100    0.0100    0.0100    0.0100    0.0100    0.0100    0.0100    0.0100
0.0100    0.0100    0.0100    0.0100    0.0100    0.0100    0.0100    0.0100
0.0100    0.0100    0.0100    0.0100    0.0100    0.0100    0.0100    0.0100
0.0100    0.0100    0.0100    0.0100    0.0100    0.0100    0.0100    0.0100
0.0100    0.0100    0.0100    0.0100    0.0100    0.0100    0.0100    0.0100
0.0100    0.0100    0.0100    0.0100    0.0100    0.0100    0.0100    0.0100
0.0100    0.0100    0.0100    0.0100    0.0100    0.0100    0.0100    0.0100
0.0100    0.0100    0.0100    0.0100    0.0100    0.0100    0.0100    0.0100
0.0100    0.0100    0.0100    0.0100    0.0100    0.0100    0.0100    0.0100
0.0100    0.0100    0.0100    0.0100    0.0100    0.0100    0.0100    0.0100
0.0100    0.0100    0.0100    0.0100    0.0100    0.0100    0.0100    0.0100
0.0100    0.0100    0.0100    0.0100    0.0100    0.0100    0.0100    0.0100
0.0100    0.0100    0.0100    0.0100    0.0100    0.0100    0.0100    0.0100
0.0100    0.0100    0.0100    0.0100    0.0100    0.0100    0.0100    0.0100
0.0100    0.0100    0.0100    0.0100    0.0100    0.0100    0.0100    0.0100
0.0100    0.0100    0.0100    0.0100    0.0100    0.0100    0.0100    0.0100
0.0100    0.0100    0.0100    0.0100    0.0100    0.0100    0.0100    0.0100
0.0100    0.0100    0.0100    0.0100    0.0100    0.0100    0.0100    0.0100
0.0100    0.0100    0.0100    0.0100    0.0100    0.0100    0.0100    0.0100
0.0100    0.0100    0.0100    0.0100    0.0100    0.0100    0.0100    0.0100
0.0100    0.0100    0.0100    0.0100    0.0100    0.0100    0.0100    0.0100
0.0100    0.0100    0.0100    0.0100    0.0100    0.0100    0.0100    0.0100
0.0100    0.0100    0.0100    0.0100    0.0100    0.0100    0.0100    0.0100
0.0100    0.0100    0.0100    0.0100    0.0100    0.0100    0.0100    0.0100
0.0100    0.0100    0.0100    0.0100    0.0100    0.0100    0.0100    0.0100
0.0100    0.0100    0.0100    0.0100    0.0100    0.0100    0.0100    0.0100
0.0100    0.0100    0.0100    0.0100    0.0100    0.0100    0.0100    0.0100
0.0100    0.0100    0.0100    0.0100    0.0100    0.0100    0.0100    0.0100
0.0100    0.0100    0.0100    0.0100    0.0100    0.0100    0.0100    0.0100
0.0100    0.0100    0.0100    0.0100    0.0100    0.0100    0.0100    0.0100
0.0100    0.0100    0.0100    0.0100    0.0100    0.0100    0.0100    0.0100
0.0100    0.0100    0.0100    0.0100    0.0100    0.0100    0.0100    0.0100
0.0100    0.0100    0.0100    0.0100    0.0100    0.0100    0.0100    0.0100
0.0100    0.0100    0.0100    0.0100    0.0100    0.0100    0.0100    0.0100
0.0100    0.0100    0.0100    0.0100    0.0100    0.0100    0.0100    0.0100
0.0100    0.0100    0.0100    0.0100    0.0100    0.0100    0.0100    0.0100
0.0100    0.0100    0.0100    0.0100    0.0100    0.0100    0.0100    0.0100
0.0100    0.0100    0.0100    0.0100    0.0100    0.0100    0.0100    0.0100
0.0100    0.0100    0.0100    0.0100    0.0100    0.0100    0.0100    0.0100
0.0100    0.0100    0.0100    0.0100    0.0100    0.0100    0.0100    0.0100
0.0100    0.0100    0.0100    0.0100    0.0100    0.0100    0.0100    0.0100
0.0100    0.0100    0.0100    0.0100    0.0100    0.0100    0.0100    0.0100
0.0100    0.0100    0.0100    0.0100    0.0100    0.0100    0.0100    0.0100
0.0100    0.0100    0.0100    0.0100    0.0100    0.0100    0.0100    0.0100
0.0100    0.0100    0.0100    0.0100    0.0100    0.0100    0.0100    0.0100
0.0100    0.0100    0.0100    0.0100    0.0100    0.0100    0.0100    0.0100
0.0100    0.0100    0.0100    0.0100    0.0100    0.0100    0.0100    0.0100
0.0100    0.0100    0.0100    0.0100    0.0100    0.0100    0.0100    0.0100
0.0100    0.0100    0.0100    0.0100    0.0100    0.0100    0.0100    0.0100
0.0100    0.0100    0.0100    0.0100    0.0100    0.0100    0.0100    0.0100
0.0100    0.0100    0.0100    0.0100    0.0100    0.0100    0.0100    0.0100
0.0100    0.0100    0.0100    0.0100    0.0100    0.0100    0.0100    0.0100
0.0100    0.0100    0.0100    0.0100    0.0100    0.0100    0.0100    0.0100
0.0100    0.0100    0.0100    0.0100    0.0100    0.0100    0.0100    0.0100
0.0100    0.0100    0.0100    0.0100    0.0100    0.0100    0.0100    0.0100
0.0100    0.0100    0.0100    0.0100    0.0100    0.0100    0.0100    0.0100
0.0100    0.0100    0.0100    0.0100    0.0100    0.0100    0.0100    0.0100
0.0100    0.0100    0.0100    0.0100    0.0100    0.0100    0.0100    0.0100
0.0100    0.0100    0.0100    0.0100    0.0100    0.0100    0.0100    0.0100
0.0100    0.0100    0.0100    0.0100    0.0100    0.0100    0.0100    0.0100
0.0100    0.0100    0.0100    0.0100    0.0100    0.0100    0.0100    0.0100
0.0100    0.0100    0.0100    0.0100    0.0100    0.0100    0.0100    0.0100
0.0100    0.0100    0.0100    0.0100    0.0100    0.0100    0.0100    0.0100
0.0100    0.0100    0.0100    0.0100    0.0100    0.0100    0.0100    0.0100
0.0100    0.0100    0.0100    0.0100    0.0100    0.0100    0.0100    0.0100
0.0100    0.0100    0.0100    0.0100    0.0100    0.0100    0.0100    0.0100
0.0100    0.0100    0.0100    0.0100    0.0100    0.0100    0.0100    0.0100
0.0100    0.0100    0.0100    0.0100    0.0100    0.0100    0.0100    0.0100
0.0100    0.0100    0.0100    0.0100    0.0100    0.0100    0.0100    0.0100
0.0100    0.0100    0.0100    0.0100    0.0100    0.0100    0.0100    0.0100
0.0100    0.0100    0.0100    0.0100    0.0100    0.0100    0.0100    0.0100
</PP_RAB>
</PP_MESH>
<PP_LOCAL type="real"  size="600" columns="4">
-4.4415981595E+01   -4.4414487078E+01   -4.4410003562E+01   -4.4402531204E+01
-4.4392070254E+01   -4.4378621056E+01   -4.4362184036E+01   -4.4342759697E+01
-4.4320348603E+01   -4.4294951372E+01   -4.4266568657E+01   -4.4235201137E+01
-4.4200849502E+01   -4.4163514436E+01   -4.4123196612E+01   -4.4079896675E+01
-4.4033615233E+01   -4.3984352857E+01   -4.3932110066E+01   -4.3876887337E+01
-4.3818685099E+01   -4.3757503745E+01   -4.3693343637E+01   -4.3626205125E+01
-4.3556088564E+01   -4.3482994335E+01   -4.3406922878E+01   -4.3327874717E+01
-4.3245850505E+01   -4.3160851059E+01   -4.3072877408E+01   -4.2981930841E+01
-4.2888012964E+01   -4.2791125752E+01   -4.2691271609E+01   -4.2588453435E+01
-4.2482674688E+01   -4.2373939453E+01   -4.2262252509E+01   -4.2147619399E+01
-4.2030046508E+01   -4.1909541124E+01   -4.1786111522E+01   -4.1659767026E+01
-4.1530518089E+01   -4.1398376356E+01   -4.1263354741E+01   -4.1125467492E+01
-4.0984730258E+01   -4.0841160157E+01   -4.0694775835E+01   -4.0545597533E+01
-4.0393647142E+01   -4.0238948262E+01   -4.0081526259E+01   -3.9921408311E+01
-3.9758623465E+01   -3.9593202678E+01   -3.9425178863E+01   -3.9254586934E+01
-3.9081463835E+01   -3.8905848584E+01   -3.8727782295E+01   -3.8547308211E+01
-3.8364471721E+01   -3.8179320382E+01   -3.7991903927E+01   -3.7802274274E+01
-3.7610485526E+01   -3.7416593964E+01   -3.7220658035E+01   -3.7022738331E+01
-3.6822897561E+01   -3.6621200515E+01   -3.6417714018E+01   -3.6212506877E+01
-3.6005649821E+01   -3.5797215426E+01   -3.5587278039E+01   -3.5375913687E+01
-3.5163199985E+01   -3.4949216027E+01   -3.4734042282E+01   -3.4517760469E+01
-3.4300453441E+01   -3.4082205052E+01   -3.3863100028E+01   -3.3643223829E+01
-3.3422662517E+01   -3.3201502607E+01   -3.2979830938E+01   -3.2757734525E+01
-3.2535300425E+01   -3.2312615596E+01   -3.2089766763E+01   -3.1866840288E+01
-3.1643922033E+01   -3.1421097242E+01   -3.1198450410E+01   -3.0976065171E+01
-3.0754024176E+01   -3.0532408986E+01   -3.0311299963E+01   -3.0090776165E+01
-2.9870915248E+01   -2.9651793369E+01   -2.9433485092E+01   -2.9216063302E+01
-2.8999599116E+01   -2.8784161805E+01   -2.8569818712E+01   -2.8356635179E+01
-2.8144674478E+01   -2.7933997739E+01   -2.7724663890E+01   -2.7516729599E+01
-2.7310249216E+01   -2.7105274724E+01   -2.6901855694E+01   -2.6700039246E+01
-2.6499870013E+01   -2.6301390108E+01   -2.6104639106E+01   -2.5909654020E+01
-2.5716469288E+01   -2.5525116769E+01   -2.5335625732E+01   -2.5148022860E+01
-2.4962332255E+01   -2.4778575442E+01   -2.4596771376E+01   -2.4416936453E+01
-2.4239084518E+01   -2.4063226873E+01   -2.3889372279E+01   -2.3717526956E+01
-2.3547694584E+01   -2.3379876287E+01   -2.3214070623E+01   -2.3050273558E+01
-2.2888478440E+01   -2.2728675963E+01   -2.2570854131E+01   -2.2414998211E+01
-2.2261090685E+01   -2.2109111204E+01   -2.1959036570E+01   -2.1810840642E+01
-2.1664494267E+01   -2.1519965315E+01   -2.1377218972E+01   -2.1236217807E+01
-2.1096922904E+01   -2.0959295698E+01   -2.0823301305E+01   -2.0688909754E+01
-2.0556099333E+01   -2.0424870042E+01   -2.0295217377E+01   -2.0167109682E+01
-2.0040512863E+01   -1.9915401267E+01   -1.9791750457E+01   -1.9669537595E+01
-1.9548740736E+01   -1.9429337900E+01   -1.9311308212E+01   -1.9194631948E+01
-1.9079290109E+01   -1.8965264366E+01   -1.8852537073E+01   -1.8741091195E+01
-1.8630910236E+01   -1.8521978182E+01   -1.8414279438E+01   -1.8307798772E+01
-1.8202521259E+01   -1.8098432224E+01   -1.7995517201E+01   -1.7893761879E+01
-1.7793152064E+01   -1.7693673642E+01   -1.7595312548E+01   -1.7498054735E+01
-1.7401886149E+01   -1.7306792714E+01   -1.7212760315E+01   -1.7119774788E+01
-1.7027821910E+01   -1.6936887399E+01   -1.6846956912E+01   -1.6758016052E+01
-1.6670050368E+01   -1.6583045368E+01   -1.6496986527E+01   -1.6411859300E+01
-1.6327649140E+01   -1.6244341504E+01   -1.6161921879E+01   -1.6080375795E+01
-1.5999688839E+01   -1.5919846679E+01   -1.5840835079E+01   -1.5762639916E+01
-1.5685247199E+01   -1.5608643085E+01   -1.5532813897E+01   -1.5457746137E+01
-1.5383426506E+01   -1.5309841912E+01   -1.5236979489E+01   -1.5164826606E+01
-1.5093370879E+01   -1.5022600181E+01   -1.4952502653E+01   -1.4883066707E+01
-1.4814281038E+01   -1.4746134629E+01   -1.4678616750E+01   -1.4611716969E+01
-1.4545425147E+01   -1.4479731445E+01   -1.4414626318E+01   -1.4350100518E+01
-1.4286145090E+01   -1.4222751369E+01   -1.4159910976E+01   -1.4097615811E+01
-1.4035858047E+01   -1.3974630124E+01   -1.3913924744E+01   -1.3853734854E+01
-1.3794053645E+01   -1.3734874540E+01   -1.3676191179E+01   -1.3617997417E+01
-1.3560287303E+01   -1.3503055078E+01   -1.3446295156E+01   -1.3390002118E+01
-1.3334170697E+01   -1.3278795765E+01   -1.3223872330E+01   -1.3169395512E+01
-1.3115360545E+01   -1.3061762757E+01   -1.3008597564E+01   -1.2955860462E+01
-1.2903547013E+01   -1.2851652842E+01   -1.2800173623E+01   -1.2749105079E+01
-1.2698442968E+01   -1.2648183083E+01   -1.2598321244E+01   -1.2548853291E+01
-1.2499775086E+01   -1.2451082504E+01   -1.2402771436E+01   -1.2354837780E+01
-1.2307277447E+01   -1.2260086355E+01   -1.2213260432E+01   -1.2166795614E+01
-1.2120687847E+01   -1.2074933090E+01   -1.2029527314E+01   -1.1984466503E+01
-1.1939746660E+01   -1.1895363809E+01   -1.1851313995E+01   -1.1807593288E+01
-1.1764197788E+01   -1.1721123628E+01   -1.1678366974E+01   -1.1635924031E+01
-1.1593791045E+01   -1.1551964309E+01   -1.1510440161E+01   -1.1469214991E+01
-1.1428285240E+01   -1.1387647407E+01   -1.1347298047E+01   -1.1307233776E+01
-1.1267451271E+01   -1.1227947271E+01   -1.1188718580E+01   -1.1149762068E+01
-1.1111074669E+01   -1.1072653384E+01   -1.1034495280E+01   -1.0996597489E+01
-1.0958957209E+01   -1.0921571704E+01   -1.0884438297E+01   -1.0847554379E+01
-1.0810917397E+01   -1.0774524859E+01   -1.0738374330E+01   -1.0702463430E+01
-1.0666789832E+01   -1.0631351257E+01   -1.0596145479E+01   -1.0561170312E+01
-1.0526423616E+01   -1.0491903290E+01   -1.0457607271E+01   -1.0423533532E+01
-1.0389680076E+01   -1.0356044936E+01   -1.0322626175E+01   -1.0289421878E+01
-1.0256430153E+01   -1.0223649129E+01   -1.0191076954E+01   -1.0158711791E+01
-1.0126551820E+01   -1.0094595231E+01   -1.0062840228E+01   -1.0031285027E+01
-9.9999278517E+00   -9.9687669349E+00   -9.9378005187E+00   -9.9070268525E+00
-9.8764441934E+00   -9.8460508064E+00   -9.8158449640E+00   -9.7858249464E+00
-9.7559890422E+00   -9.7263355487E+00   -9.6968627726E+00   -9.6675690305E+00
-9.6384526498E+00   -9.6095119697E+00   -9.5807453418E+00   -9.5521511312E+00
-9.5237277174E+00   -9.4954734954E+00   -9.4673868763E+00   -9.4394662886E+00
-9.4117101790E+00   -9.3841170128E+00   -9.3566852752E+00   -9.3294134719E+00
-9.3023001294E+00   -9.2753437957E+00   -9.2485430407E+00   -9.2218964574E+00
-9.1954026608E+00   -9.1690602902E+00   -9.1428680108E+00   -9.1168244935E+00
-9.0909284405E+00   -9.0651785791E+00   -9.0395736206E+00   -9.0141124013E+00
-8.9887937377E+00   -8.9636164554E+00   -8.9385794306E+00   -8.9136814380E+00
-8.8889212567E+00   -8.8642976905E+00   -8.8398095936E+00   -8.8154558081E+00
-8.7912351553E+00   -8.7671465569E+00   -8.7431889654E+00   -8.7193611875E+00
-8.6956629072E+00   -8.6720934982E+00   -8.6486523047E+00   -8.6253390376E+00
-8.6021523585E+00   -8.5790908211E+00   -8.5561530846E+00   -8.5333376519E+00
-8.5106430576E+00   -8.4880686453E+00   -8.4656134822E+00   -8.4432766942E+00
-8.4210576011E+00   -8.3989551987E+00   -8.3769685312E+00   -8.3550966894E+00
-8.3333387587E+00   -8.3116938242E+00   -8.2901610334E+00   -8.2687395169E+00
-8.2474284147E+00   -8.2262268751E+00   -8.2051340554E+00   -8.1841491217E+00
-8.1632712487E+00   -8.1424996192E+00   -8.1218334246E+00   -8.1012718642E+00
-8.0808141455E+00   -8.0604594840E+00   -8.0402071029E+00   -8.0200562336E+00
-8.0000061146E+00   -7.9800559926E+00   -7.9602051213E+00   -7.9404527621E+00
-7.9207981835E+00   -7.9012406615E+00   -7.8817794790E+00   -7.8624139259E+00
-7.8431432993E+00   -7.8239669030E+00   -7.8048840477E+00   -7.7858940505E+00
-7.7669962356E+00   -7.7481899334E+00   -7.7294744809E+00   -7.7108492214E+00
-7.6923135046E+00   -7.6738666864E+00   -7.6555081288E+00   -7.6372372001E+00
-7.6190532744E+00   -7.6009557317E+00   -7.5829439581E+00   -7.5650173454E+00
-7.5471752910E+00   -7.5294171982E+00   -7.5117424757E+00   -7.4941505379E+00
-7.4766408046E+00   -7.4592127010E+00   -7.4418656576E+00   -7.4245991102E+00
-7.4074125000E+00   -7.3903052731E+00   -7.3732768808E+00   -7.3563267795E+00
-7.3394544306E+00   -7.3226593003E+00   -7.3059408598E+00   -7.2892985850E+00
-7.2727319567E+00   -7.2562404603E+00   -7.2398235859E+00   -7.2234808282E+00
-7.2072116864E+00   -7.1910156643E+00   -7.1748922700E+00   -7.1588410162E+00
-7.1428614198E+00   -7.1269530021E+00   -7.1111152885E+00   -7.0953478087E+00
-7.0796500967E+00   -7.0640216903E+00   -7.0484621318E+00   -7.0329709670E+00
-7.0175477461E+00   -7.0021920232E+00   -6.9869033560E+00   -6.9716813063E+00
-6.9565254396E+00   -6.9414353254E+00   -6.9264105366E+00   -6.9114506500E+00
-6.8965552459E+00   -6.8817239083E+00   -6.8669562249E+00   -6.8522517867E+00
-6.8376101882E+00   -6.8230310276E+00   -6.8085139064E+00   -6.7940584292E+00
-6.7796642044E+00   -6.7653308435E+00   -6.7510579613E+00   -6.7368451757E+00
-6.7226921081E+00   -6.7085983828E+00   -6.6945636275E+00   -6.6805874727E+00
-6.6666695522E+00   -6.6528095029E+00   -6.6390069645E+00   -6.6252615798E+00
-6.6115729946E+00   -6.5979408575E+00   -6.5843648201E+00   -6.5708445368E+00
-6.5573796648E+00   -6.5439698642E+00   -6.5306147978E+00   -6.5173141313E+00
-6.5040675328E+00   -6.4908746734E+00   -6.4777352267E+00   -6.4646488690E+00
-6.4516152792E+00   -6.4386341388E+00   -6.4257051318E+00   -6.4128279448E+00
-6.4000022669E+00   -6.3872277896E+00   -6.3745042069E+00   -6.3618312153E+00
-6.3492085136E+00   -6.3366358032E+00   -6.3241127875E+00   -6.3116391726E+00
-6.2992146667E+00   -6.2868389803E+00   -6.2745118264E+00   -6.2622329198E+00
-6.2500019781E+00   -6.2378187205E+00   -6.2256828689E+00   -6.2135941471E+00
-6.2015522810E+00   -6.1895569989E+00   -6.1776080307E+00   -6.1657051090E+00
-6.1538479679E+00   -6.1420363440E+00   -6.1302699755E+00   -6.1185486029E+00
-6.1068719686E+00   -6.0952398169E+00   -6.0836518942E+00   -6.0721079486E+00
-6.0606077303E+00   -6.0491509913E+00   -6.0377374854E+00   -6.0263669685E+00
-6.0150391980E+00   -6.0037539334E+00   -5.9925109360E+00   -5.9813099686E+00
-5.9701507960E+00   -5.9590331848E+00   -5.9479569032E+00   -5.9369217210E+00
-5.9259274101E+00   -5.9149737438E+00   -5.9040604971E+00   -5.8931874466E+00
-5.8823543707E+00   -5.8715610494E+00   -5.8608072642E+00   -5.8500927983E+00
-5.8394174364E+00   -5.8287809648E+00   -5.8181831715E+00   -5.8076238458E+00
-5.7971027786E+00   -5.7866197624E+00   -5.7761745912E+00   -5.7657670604E+00
-5.7553969668E+00   -5.7450641089E+00   -5.7347682864E+00   -5.7245093006E+00
-5.7142869541E+00   -5.7041010511E+00   -5.6939513969E+00   -5.6838377984E+00
-5.6737600638E+00   -5.6637180028E+00   -5.6537114261E+00   -5.6437401461E+00
-5.6338039764E+00   -5.6239027317E+00   -5.6140362284E+00   -5.6042042838E+00
-5.5944067167E+00   -5.5846433472E+00   -5.5749139964E+00   -5.5652184869E+00
-5.5555566425E+00   -5.5459282881E+00   -5.5363332498E+00   -5.5267713551E+00
-5.5172424325E+00   -5.5077463118E+00   -5.4982828239E+00   -5.4888518009E+00
-5.4794530759E+00   -5.4700864834E+00   -5.4607518588E+00   -5.4514490388E+00
-5.4421778611E+00   -5.4329381646E+00   -5.4237297891E+00   -5.4145525756E+00
-5.4054063664E+00   -5.3962910044E+00   -5.3872063339E+00   -5.3781522002E+00
-5.3691284496E+00   -5.3601349293E+00   -5.3511714877E+00   -5.3422379742E+00
</PP_LOCAL>
<PP_NONLOCAL>
<PP_BETA.1
type="real"
size="600"
columns="4"
index="1"
angular_momentum="0"
cutoff_radius_index=" 232"
cutoff_radius="    2.3100000000E+00" >
3.2907565561E-10    5.5373580567E-02    1.1069003615E-01    1.6589195409E-01
2.2092135242E-01    2.7571941011E-01    3.3022621514E-01    3.8438053571E-01
4.3811961990E-01    4.9137902851E-01    5.4409250544E-01    5.9619188929E-01
6.4760706947E-01    6.9826598931E-01    7.4809469802E-01    7.9701745272E-01
8.4495687095E-01    8.9183413334E-01    9.3756923533E-01    9.8208128640E-01
1.0252888539E+00    1.0671103489E+00    1.1074644494E+00    1.1462705575E+00
1.1834492843E+00    1.2189229587E+00    1.2526161525E+00    1.2844562166E+00
1.3143738219E+00    1.3423034973E+00    1.3681841597E+00    1.3919596271E+00
1.4135791104E+00    1.4329976756E+00    1.4501766714E+00    1.4650841155E+00
1.4776950354E+00    1.4879917570E+00    1.4959641385E+00    1.5016097449E+00
1.5049339601E+00    1.5059500348E+00    1.5046790688E+00    1.5011499266E+00
1.4953990863E+00    1.4874704239E+00    1.4774149338E+00    1.4652903882E+00
1.4511609394E+00    1.4350966683E+00    1.4171730854E+00    1.3974705873E+00
1.3760738778E+00    1.3530713572E+00    1.3285544889E+00    1.3026171493E+00
1.2753549696E+00    1.2468646752E+00    1.2172434332E+00    1.1865882126E+00
1.1549951666E+00    1.1225590437E+00    1.0893726339E+00    1.0555262570E+00
1.0211072978E+00    9.8619979483E-01    9.5088408539E-01    9.1523651208E-01
8.7932919257E-01    8.4322985518E-01    8.0700174130E-01    7.7070357473E-01
7.3438959725E-01    6.9810966888E-01    6.6190942997E-01    6.2583052211E-01
5.8991086312E-01    5.5418497145E-01    5.1868433399E-01    4.8343781091E-01
4.4847207066E-01    4.1381204746E-01    3.7948141374E-01    3.4550305924E-01
3.1189956864E-01    2.7869368946E-01    2.4590878200E-01    2.1356924347E-01
1.8170089839E-01    1.5033134832E-01    1.1949027395E-01    8.9209683619E-02
5.9524102812E-02    3.0470700141E-02    2.0893461087E-03   -2.5577398047E-02
-5.2484363153E-02   -7.8583927230E-02   -1.0382624257E-01   -1.2815953334E-01
-1.5153046112E-01   -1.7388455493E-01   -1.9516670109E-01   -2.1532168737E-01
-2.3429479506E-01   -2.5203243161E-01   -2.6848279591E-01   -2.8359656750E-01
-2.9732761052E-01   -3.0963368293E-01   -3.2047714090E-01   -3.2982562858E-01
-3.3765274287E-01   -3.4393866359E-01   -3.4867073901E-01   -3.5184401754E-01
-3.5346171682E-01   -3.5353562193E-01   -3.5208640531E-01   -3.4914386174E-01
-3.4474705312E-01   -3.3894435809E-01   -3.3179342332E-01   -3.2336101428E-01
-3.1372276455E-01   -3.0296282373E-01   -2.9117340583E-01   -2.7845424117E-01
-2.6491193532E-01   -2.5065924105E-01   -2.3581424990E-01   -2.2049951041E-01
-2.0484108243E-01   -1.8896753689E-01   -1.7300891120E-01   -1.5709563208E-01
-1.4135741692E-01   -1.2592216632E-01   -1.1091485995E-01   -9.6456468478E-02
-8.2662894206E-02   -6.9643952367E-02   -5.7502406086E-02   -4.6333065113E-02
-3.6221961034E-02   -2.7245607781E-02   -1.9470357005E-02   -1.2956743196E-02
-7.7246132309E-03   -3.8232006878E-03   -1.3849454663E-03   -2.5301110250E-04
5.6935775128E-05    1.5162218251E-05   -2.5840880538E-05   -2.2605513085E-07
4.2755571410E-06    5.8328396837E-08    2.0657113954E-07    0.0000000000E+00
0.0000000000E+00    0.0000000000E+00    0.0000000000E+00    0.0000000000E+00
0.0000000000E+00    0.0000000000E+00    0.0000000000E+00    0.0000000000E+00
0.0000000000E+00    0.0000000000E+00    0.0000000000E+00    0.0000000000E+00
0.0000000000E+00    0.0000000000E+00    0.0000000000E+00    0.0000000000E+00
0.0000000000E+00    0.0000000000E+00    0.0000000000E+00    0.0000000000E+00
0.0000000000E+00    0.0000000000E+00    0.0000000000E+00    0.0000000000E+00
0.0000000000E+00    0.0000000000E+00    0.0000000000E+00    0.0000000000E+00
0.0000000000E+00    0.0000000000E+00    0.0000000000E+00    0.0000000000E+00
0.0000000000E+00    0.0000000000E+00    0.0000000000E+00    0.0000000000E+00
0.0000000000E+00    0.0000000000E+00    0.0000000000E+00    0.0000000000E+00
0.0000000000E+00    0.0000000000E+00    0.0000000000E+00    0.0000000000E+00