<UPF version="2.0.1">
<PP_INFO>
NOTE!!!!
This file is trimmed with a mesh size of 600 from the original version.
Trimming performed at 2023-03-31 09:10:05.054176 by trim_upf.py version 0.1.0

This pseudopotential file has been produced using the code
ONCVPSP  (Optimized Norm-Conservinng Vanderbilt PSeudopotential)
scalar-relativistic version 3.3.0 08/16/2017 by D. R. Hamann
The code is available through a link at URL www.mat-simresearch.com.
Documentation with the package provides a full discription of the
input data below.
While it is not required under the terms of the GNU GPL, it is
suggested that you cite D. R. Hamann, Phys. Rev. B 88, 085117 (2013)
in any publication using these pseudopotentials.
<PP_INPUTFILE>
# ATOM AND REFERENCE CONFIGURATION
# atsym  z   nc   nv     iexc    psfile
P 15.00    3    2       4      upf
#
#   n    l    f        energy (Ha)
1    0    2.00
2    0    2.00
2    1    6.00
3    0    2.00
3    1    3.00
#
# PSEUDOPOTENTIAL AND OPTIMIZATION
# lmax
2
#
#   l,   rc,      ep,       ncon, nbas, qcut
0   1.45000  -0.51336    4    9   6.20000
1   1.55000  -0.20237    4    9   6.60000
2   1.70000   0.05000    4    9   6.60000
#
# LOCAL POTENTIAL
# lloc, lpopt,  rc(5),   dvloc0
4    5   1.45000      0.00000
#
# VANDERBILT-KLEINMAN-BYLANDER PROJECTORs
# l, nproj, debl
0    2   3.00000
1    2   2.50000
2    2   2.00000
#
# MODEL CORE CHARGE
# icmod, fcfact, rcfact
3   5.00000   1.10000
#
# LOG DERIVATIVE ANALYSIS
# epsh1, epsh2, depsh
-12.00   12.00    0.02
#
# OUTPUT GRID
# rlmax, drl
6.00    0.01
#
# TEST CONFIGURATIONS
# ncnf
0
# nvcnf
#   n    l    f
</PP_INPUTFILE>
</PP_INFO>
<!--                               -->
<!-- END OF HUMAN READABLE SECTION -->
<!--                               -->
<PP_HEADER
generated="Generated using ONCVPSP code by D. R. Hamann"
author="anonymous"
date="171031"
comment=""
element="P "
pseudo_type="NC"
relativistic="scalar"
is_ultrasoft="F"
is_paw="F"
is_coulomb="F"
has_so="F"
has_wfc="F"
has_gipaw="F"
core_correction="T"
functional="PBE"
z_valence="    5.00"
total_psenergy="  -1.28227519882E+01"
rho_cutoff="   1.29700000000E+01"
l_max="2"
l_local="-1"
mesh_size="   600"
number_of_wfc="2"
number_of_proj="6"/>
<PP_MESH>
<PP_R type="real"  size="600" columns="8">
0.0000    0.0100    0.0200    0.0300    0.0400    0.0500    0.0600    0.0700
0.0800    0.0900    0.1000    0.1100    0.1200    0.1300    0.1400    0.1500
0.1600    0.1700    0.1800    0.1900    0.2000    0.2100    0.2200    0.2300
0.2400    0.2500    0.2600    0.2700    0.2800    0.2900    0.3000    0.3100
0.3200    0.3300    0.3400    0.3500    0.3600    0.3700    0.3800    0.3900
0.4000    0.4100    0.4200    0.4300    0.4400    0.4500    0.4600    0.4700
0.4800    0.4900    0.5000    0.5100    0.5200    0.5300    0.5400    0.5500
0.5600    0.5700    0.5800    0.5900    0.6000    0.6100    0.6200    0.6300
0.6400    0.6500    0.6600    0.6700    0.6800    0.6900    0.7000    0.7100
0.7200    0.7300    0.7400    0.7500    0.7600    0.7700    0.7800    0.7900
0.8000    0.8100    0.8200    0.8300    0.8400    0.8500    0.8600    0.8700
0.8800    0.8900    0.9000    0.9100    0.9200    0.9300    0.9400    0.9500
0.9600    0.9700    0.9800    0.9900    1.0000    1.0100    1.0200    1.0300
1.0400    1.0500    1.0600    1.0700    1.0800    1.0900    1.1000    1.1100
1.1200    1.1300    1.1400    1.1500    1.1600    1.1700    1.1800    1.1900
1.2000    1.2100    1.2200    1.2300    1.2400    1.2500    1.2600    1.2700
1.2800    1.2900    1.3000    1.3100    1.3200    1.3300    1.3400    1.3500
1.3600    1.3700    1.3800    1.3900    1.4000    1.4100    1.4200    1.4300
1.4400    1.4500    1.4600    1.4700    1.4800    1.4900    1.5000    1.5100
1.5200    1.5300    1.5400    1.5500    1.5600    1.5700    1.5800    1.5900
1.6000    1.6100    1.6200    1.6300    1.6400    1.6500    1.6600    1.6700
1.6800    1.6900    1.7000    1.7100    1.7200    1.7300    1.7400    1.7500
1.7600    1.7700    1.7800    1.7900    1.8000    1.8100    1.8200    1.8300
1.8400    1.8500    1.8600    1.8700    1.8800    1.8900    1.9000    1.9100
1.9200    1.9300    1.9400    1.9500    1.9600    1.9700    1.9800    1.9900
2.0000    2.0100    2.0200    2.0300    2.0400    2.0500    2.0600    2.0700
2.0800    2.0900    2.1000    2.1100    2.1200    2.1300    2.1400    2.1500
2.1600    2.1700    2.1800    2.1900    2.2000    2.2100    2.2200    2.2300
2.2400    2.2500    2.2600    2.2700    2.2800    2.2900    2.3000    2.3100
2.3200    2.3300    2.3400    2.3500    2.3600    2.3700    2.3800    2.3900
2.4000    2.4100    2.4200    2.4300    2.4400    2.4500    2.4600    2.4700
2.4800    2.4900    2.5000    2.5100    2.5200    2.5300    2.5400    2.5500
2.5600    2.5700    2.5800    2.5900    2.6000    2.6100    2.6200    2.6300
2.6400    2.6500    2.6600    2.6700    2.6800    2.6900    2.7000    2.7100
2.7200    2.7300    2.7400    2.7500    2.7600    2.7700    2.7800    2.7900
2.8000    2.8100    2.8200    2.8300    2.8400    2.8500    2.8600    2.8700
2.8800    2.8900    2.9000    2.9100    2.9200    2.9300    2.9400    2.9500
2.9600    2.9700    2.9800    2.9900    3.0000    3.0100    3.0200    3.0300
3.0400    3.0500    3.0600    3.0700    3.0800    3.0900    3.1000    3.1100
3.1200    3.1300    3.1400    3.1500    3.1600    3.1700    3.1800    3.1900
3.2000    3.2100    3.2200    3.2300    3.2400    3.2500    3.2600    3.2700
3.2800    3.2900    3.3000    3.3100    3.3200    3.3300    3.3400    3.3500
3.3600    3.3700    3.3800    3.3900    3.4000    3.4100    3.4200    3.4300
3.4400    3.4500    3.4600    3.4700    3.4800    3.4900    3.5000    3.5100
3.5200    3.5300    3.5400    3.5500    3.5600    3.5700    3.5800    3.5900
3.6000    3.6100    3.6200    3.6300    3.6400    3.6500    3.6600    3.6700
3.6800    3.6900    3.7000    3.7100    3.7200    3.7300    3.7400    3.7500
3.7600    3.7700    3.7800    3.7900    3.8000    3.8100    3.8200    3.8300
3.8400    3.8500    3.8600    3.8700    3.8800    3.8900    3.9000    3.9100
3.9200    3.9300    3.9400    3.9500    3.9600    3.9700    3.9800    3.9900
4.0000    4.0100    4.0200    4.0300    4.0400    4.0500    4.0600    4.0700
4.0800    4.0900    4.1000    4.1100    4.1200    4.1300    4.1400    4.1500
4.1600    4.1700    4.1800    4.1900    4.2000    4.2100    4.2200    4.2300
4.2400    4.2500    4.2600    4.2700    4.2800    4.2900    4.3000    4.3100
4.3200    4.3300    4.3400    4.3500    4.3600    4.3700    4.3800    4.3900
4.4000    4.4100    4.4200    4.4300    4.4400    4.4500    4.4600    4.4700
4.4800    4.4900    4.5000    4.5100    4.5200    4.5300    4.5400    4.5500
4.5600    4.5700    4.5800    4.5900    4.6000    4.6100    4.6200    4.6300
4.6400    4.6500    4.6600    4.6700    4.6800    4.6900    4.7000    4.7100
4.7200    4.7300    4.7400    4.7500    4.7600    4.7700    4.7800    4.7900
4.8000    4.8100    4.8200    4.8300    4.8400    4.8500    4.8600    4.8700
4.8800    4.8900    4.9000    4.9100    4.9200    4.9300    4.9400    4.9500
4.9600    4.9700    4.9800    4.9900    5.0000    5.0100    5.0200    5.0300
5.0400    5.0500    5.0600    5.0700    5.0800    5.0900    5.1000    5.1100
5.1200    5.1300    5.1400    5.1500    5.1600    5.1700    5.1800    5.1900
5.2000    5.2100    5.2200    5.2300    5.2400    5.2500    5.2600    5.2700
5.2800    5.2900    5.3000    5.3100    5.3200    5.3300    5.3400    5.3500
5.3600    5.3700    5.3800    5.3900    5.4000    5.4100    5.4200    5.4300
5.4400    5.4500    5.4600    5.4700    5.4800    5.4900    5.5000    5.5100
5.5200    5.5300    5.5400    5.5500    5.5600    5.5700    5.5800    5.5900
5.6000    5.6100    5.6200    5.6300    5.6400    5.6500    5.6600    5.6700
5.6800    5.6900    5.7000    5.7100    5.7200    5.7300    5.7400    5.7500
5.7600    5.7700    5.7800    5.7900    5.8000    5.8100    5.8200    5.8300
5.8400    5.8500    5.8600    5.8700    5.8800    5.8900    5.9000    5.9100
5.9200    5.9300    5.9400    5.9500    5.9600    5.9700    5.9800    5.9900
</PP_R>
<PP_RAB type="real"  size="600" columns="8">
0.0100    0.0100    0.0100    0.0100    0.0100    0.0100    0.0100    0.0100
0.0100    0.0100    0.0100    0.0100    0.0100    0.0100    0.0100    0.0100
0.0100    0.0100    0.0100    0.0100    0.0100    0.0100    0.0100    0.0100
0.0100    0.0100    0.0100    0.0100    0.0100    0.0100    0.0100    0.0100
0.0100    0.0100    0.0100    0.0100    0.0100    0.0100    0.0100    0.0100
0.0100    0.0100    0.0100    0.0100    0.0100    0.0100    0.0100    0.0100
0.0100    0.0100    0.0100    0.0100    0.0100    0.0100    0.0100    0.0100
0.0100    0.0100    0.0100    0.0100    0.0100    0.0100    0.0100    0.0100
0.0100    0.0100    0.0100    0.0100    0.0100    0.0100    0.0100    0.0100
0.0100    0.0100    0.0100    0.0100    0.0100    0.0100    0.0100    0.0100
0.0100    0.0100    0.0100    0.0100    0.0100    0.0100    0.0100    0.0100
0.0100    0.0100    0.0100    0.0100    0.0100    0.0100    0.0100    0.0100
0.0100    0.0100    0.0100    0.0100    0.0100    0.0100    0.0100    0.0100
0.0100    0.0100    0.0100    0.0100    0.0100    0.0100    0.0100    0.0100
0.0100    0.0100    0.0100    0.0100    0.0100    0.0100    0.0100    0.0100
0.0100    0.0100    0.0100    0.0100    0.0100    0.0100    0.0100    0.0100
0.0100    0.0100    0.0100    0.0100    0.0100    0.0100    0.0100    0.0100
0.0100    0.0100    0.0100    0.0100    0.0100    0.0100    0.0100    0.0100
0.0100    0.0100    0.0100    0.0100    0.0100    0.0100    0.0100    0.0100
0.0100    0.0100    0.0100    0.0100    0.0100    0.0100    0.0100    0.0100
0.0100    0.0100    0.0100    0.0100    0.0100    0.0100    0.0100    0.0100
0.0100    0.0100    0.0100    0.0100    0.0100    0.0100    0.0100    0.0100
0.0100    0.0100    0.0100    0.0100    0.0100    0.0100    0.0100    0.0100
0.0100    0.0100    0.0100    0.0100    0.0100    0.0100    0.0100    0.0100
0.0100    0.0100    0.0100    0.0100    0.0100    0.0100    0.0100    0.0100
0.0100    0.0100    0.0100    0.0100    0.0100    0.0100    0.0100    0.0100
0.0100    0.0100    0.0100    0.0100    0.0100    0.0100    0.0100    0.0100
0.0100    0.0100    0.0100    0.0100    0.0100    0.0100    0.0100    0.0100
0.0100    0.0100    0.0100    0.0100    0.0100    0.0100    0.0100    0.0100
0.0100    0.0100    0.0100    0.0100    0.0100    0.0100    0.0100    0.0100
0.0100    0.0100    0.0100    0.0100    0.0100    0.0100    0.0100    0.0100
0.0100    0.0100    0.0100    0.0100    0.0100    0.0100    0.0100    0.0100
0.0100    0.0100    0.0100    0.0100    0.0100    0.0100    0.0100    0.0100
0.0100    0.0100    0.0100    0.0100    0.0100    0.0100    0.0100    0.0100
0.0100    0.0100    0.0100    0.0100    0.0100    0.0100    0.0100    0.0100
0.0100    0.0100    0.0100    0.0100    0.0100    0.0100    0.0100    0.0100
0.0100    0.0100    0.0100    0.0100    0.0100    0.0100    0.0100    0.0100
0.0100    0.0100    0.0100    0.0100    0.0100    0.0100    0.0100    0.0100
0.0100    0.0100    0.0100    0.0100    0.0100    0.0100    0.0100    0.0100
0.0100    0.0100    0.0100    0.0100    0.0100    0.0100    0.0100    0.0100
0.0100    0.0100    0.0100    0.0100    0.0100    0.0100    0.0100    0.0100
0.0100    0.0100    0.0100    0.0100    0.0100    0.0100    0.0100    0.0100
0.0100    0.0100    0.0100    0.0100    0.0100    0.0100    0.0100    0.0100
0.0100    0.0100    0.0100    0.0100    0.0100    0.0100    0.0100    0.0100
0.0100    0.0100    0.0100    0.0100    0.0100    0.0100    0.0100    0.0100
0.0100    0.0100    0.0100    0.0100    0.0100    0.0100    0.0100    0.0100
0.0100    0.0100    0.0100    0.0100    0.0100    0.0100    0.0100    0.0100
0.0100    0.0100    0.0100    0.0100    0.0100    0.0100    0.0100    0.0100
0.0100    0.0100    0.0100    0.0100    0.0100    0.0100    0.0100    0.0100
0.0100    0.0100    0.0100    0.0100    0.0100    0.0100    0.0100    0.0100
0.0100    0.0100    0.0100    0.0100    0.0100    0.0100    0.0100    0.0100
0.0100    0.0100    0.0100    0.0100    0.0100    0.0100    0.0100    0.0100
0.0100    0.0100    0.0100    0.0100    0.0100    0.0100    0.0100    0.0100
0.0100    0.0100    0.0100    0.0100    0.0100    0.0100    0.0100    0.0100
0.0100    0.0100    0.0100    0.0100    0.0100    0.0100    0.0100    0.0100
0.0100    0.0100    0.0100    0.0100    0.0100    0.0100    0.0100    0.0100
0.0100    0.0100    0.0100    0.0100    0.0100    0.0100    0.0100    0.0100
0.0100    0.0100    0.0100    0.0100    0.0100    0.0100    0.0100    0.0100
0.0100    0.0100    0.0100    0.0100    0.0100    0.0100    0.0100    0.0100
0.0100    0.0100    0.0100    0.0100    0.0100    0.0100    0.0100    0.0100
0.0100    0.0100    0.0100    0.0100    0.0100    0.0100    0.0100    0.0100
0.0100    0.0100    0.0100    0.0100    0.0100    0.0100    0.0100    0.0100
0.0100    0.0100    0.0100    0.0100    0.0100    0.0100    0.0100    0.0100
0.0100    0.0100    0.0100    0.0100    0.0100    0.0100    0.0100    0.0100
0.0100    0.0100    0.0100    0.0100    0.0100    0.0100    0.0100    0.0100
0.0100    0.0100    0.0100    0.0100    0.0100    0.0100    0.0100    0.0100
0.0100    0.0100    0.0100    0.0100    0.0100    0.0100    0.0100    0.0100
0.0100    0.0100    0.0100    0.0100    0.0100    0.0100    0.0100    0.0100
0.0100    0.0100    0.0100    0.0100    0.0100    0.0100    0.0100    0.0100
0.0100    0.0100    0.0100    0.0100    0.0100    0.0100    0.0100    0.0100
0.0100    0.0100    0.0100    0.0100    0.0100    0.0100    0.0100    0.0100
0.0100    0.0100    0.0100    0.0100    0.0100    0.0100    0.0100    0.0100
0.0100    0.0100    0.0100    0.0100    0.0100    0.0100    0.0100    0.0100
0.0100    0.0100    0.0100    0.0100    0.0100    0.0100    0.0100    0.0100
0.0100    0.0100    0.0100    0.0100    0.0100    0.0100    0.0100    0.0100
</PP_RAB>
</PP_MESH>
<PP_LOCAL type="real"  size="600" columns="4">
-1.3992509284E+01   -1.3991836729E+01   -1.3989820175E+01   -1.3986462956E+01
-1.3981770598E+01   -1.3975750777E+01   -1.3968413261E+01   -1.3959769831E+01
-1.3949834193E+01   -1.3938621869E+01   -1.3926150077E+01   -1.3912437598E+01
-1.3897504634E+01   -1.3881372648E+01   -1.3864064207E+01   -1.3845602812E+01
-1.3826012726E+01   -1.3805318799E+01   -1.3783546297E+01   -1.3760720730E+01
-1.3736867690E+01   -1.3712012692E+01   -1.3686181024E+01   -1.3659397618E+01
-1.3631686917E+01   -1.3603072773E+01   -1.3573578351E+01   -1.3543226047E+01
-1.3512037432E+01   -1.3480033200E+01   -1.3447233140E+01   -1.3413656120E+01
-1.3379320080E+01   -1.3344242051E+01   -1.3308438166E+01   -1.3271923700E+01
-1.3234713102E+01   -1.3196820043E+01   -1.3158257466E+01   -1.3119037634E+01
-1.3079172187E+01   -1.3038672191E+01   -1.2997548192E+01   -1.2955810260E+01
-1.2913468033E+01   -1.2870530757E+01   -1.2827007317E+01   -1.2782906263E+01
-1.2738235836E+01   -1.2693003975E+01   -1.2647218333E+01   -1.2600886276E+01
-1.2554014885E+01   -1.2506610945E+01   -1.2458680936E+01   -1.2410231021E+01
-1.2361267020E+01   -1.2311794393E+01   -1.2261818211E+01   -1.2211343121E+01
-1.2160373312E+01   -1.2108912468E+01   -1.2056963716E+01   -1.2004529565E+01
-1.1951611839E+01   -1.1898211586E+01   -1.1844328993E+01   -1.1789963279E+01
-1.1735112580E+01   -1.1679773834E+01   -1.1623942659E+01   -1.1567613241E+01
-1.1510778231E+01   -1.1453428677E+01   -1.1395553984E+01   -1.1337141937E+01
-1.1278178789E+01   -1.1218649433E+01   -1.1158537673E+01   -1.1097826611E+01
-1.1036499144E+01   -1.0974538587E+01   -1.0911929405E+01   -1.0848658048E+01
-1.0784713856E+01   -1.0720090007E+01   -1.0654784463E+01   -1.0588800861E+01
-1.0522149306E+01   -1.0454847004E+01   -1.0386918682E+01   -1.0318396770E+01
-1.0249321304E+01   -1.0179739536E+01   -1.0109705273E+01   -1.0039277957E+01
-9.9685215302E+00   -9.8975031525E+00   -9.8262918293E+00   -9.7549570267E+00
-9.6835673415E+00   -9.6121892912E+00   -9.5408862729E+00   -9.4697177287E+00
-9.3987385352E+00   -9.3279986215E+00   -9.2575428032E+00   -9.1874108098E+00
-9.1176374730E+00   -9.0482530416E+00   -8.9792835836E+00   -8.9107514423E+00
-8.8426757133E+00   -8.7750727166E+00   -8.7079564435E+00   -8.6413389635E+00
-8.5752307830E+00   -8.5096411507E+00   -8.4445783096E+00   -8.3800497004E+00
-8.3160621179E+00   -8.2526218301E+00   -8.1897346658E+00   -8.1274060775E+00
-8.0656411885E+00   -8.0044448297E+00   -7.9438215734E+00   -7.8837757670E+00
-7.8243115738E+00   -7.7654330215E+00   -7.7071440601E+00   -7.6494486307E+00
-7.5923507423E+00   -7.5358545547E+00   -7.4799644640E+00   -7.4246851834E+00
-7.3700218154E+00   -7.3159799068E+00   -7.2625654792E+00   -7.2097850344E+00
-7.1576455427E+00   -7.1061542079E+00   -7.0553186205E+00   -7.0051464399E+00
-6.9556457086E+00   -6.9068232325E+00   -6.8586783616E+00   -6.8112020315E+00
-6.7643736039E+00   -6.7181741574E+00   -6.6725988004E+00   -6.6276486373E+00
-6.5833269947E+00   -6.5396326715E+00   -6.4965575787E+00   -6.4540908648E+00
-6.4122170431E+00   -6.3709092677E+00   -6.3301415583E+00   -6.2899013444E+00
-6.2501815391E+00   -6.2109778800E+00   -6.1722841691E+00   -6.1340879517E+00
-6.0963779877E+00   -6.0591467839E+00   -6.0223863926E+00   -5.9860878624E+00
-5.9502425709E+00   -5.9148422469E+00   -5.8798786921E+00   -5.8453438009E+00
-5.8112295994E+00   -5.7775282407E+00   -5.7442320035E+00   -5.7113332934E+00
-5.6788246444E+00   -5.6466987203E+00   -5.6149483157E+00   -5.5835663576E+00
-5.5525459068E+00   -5.5218801587E+00   -5.4915624446E+00   -5.4615862330E+00
-5.4319451301E+00   -5.4026328804E+00   -5.3736433679E+00   -5.3449706157E+00
-5.3166087863E+00   -5.2885521817E+00   -5.2607952430E+00   -5.2333325496E+00
-5.2061588190E+00   -5.1792689049E+00   -5.1526577967E+00   -5.1263206177E+00
-5.1002526235E+00   -5.0744491999E+00   -5.0489058611E+00   -5.0236182470E+00
-4.9985821210E+00   -4.9737933674E+00   -4.9492479880E+00   -4.9249420999E+00
-4.9008719319E+00   -4.8770338213E+00   -4.8534242108E+00   -4.8300396449E+00
-4.8068767664E+00   -4.7839323130E+00   -4.7612031135E+00   -4.7386860846E+00
-4.7163782267E+00   -4.6942766206E+00   -4.6723784241E+00   -4.6506808681E+00
-4.6291812531E+00   -4.6078769460E+00   -4.5867653763E+00   -4.5658440333E+00
-4.5451104624E+00   -4.5245622624E+00   -4.5041970822E+00   -4.4840126180E+00
-4.4640066107E+00   -4.4441768431E+00   -4.4245211376E+00   -4.4050373537E+00
-4.3857233860E+00   -4.3665771620E+00   -4.3475966405E+00   -4.3287798095E+00
-4.3101246851E+00   -4.2916293097E+00   -4.2732917508E+00   -4.2551101001E+00
-4.2370824725E+00   -4.2192070049E+00   -4.2014818559E+00   -4.1839052050E+00
-4.1664752522E+00   -4.1491902179E+00   -4.1320483421E+00   -4.1150478847E+00
-4.0981871250E+00   -4.0814643623E+00   -4.0648779153E+00   -4.0484261227E+00
-4.0321073432E+00   -4.0159199557E+00   -3.9998623594E+00   -3.9839329743E+00
-3.9681302414E+00   -3.9524526227E+00   -3.9368986019E+00   -3.9214666844E+00
-3.9061553975E+00   -3.8909632906E+00   -3.8758889357E+00   -3.8609309270E+00
-3.8460878816E+00   -3.8313584391E+00   -3.8167412620E+00   -3.8022350352E+00
-3.7878384664E+00   -3.7735502859E+00   -3.7593692462E+00   -3.7452941218E+00
-3.7313237093E+00   -3.7174568267E+00   -3.7036923132E+00   -3.6900290290E+00
-3.6764658545E+00   -3.6630016900E+00   -3.6496354553E+00   -3.6363660891E+00
-3.6231925486E+00   -3.6101138087E+00   -3.5971288614E+00   -3.5842367156E+00
-3.5714363962E+00   -3.5587269435E+00   -3.5461074129E+00   -3.5335768740E+00
-3.5211344102E+00   -3.5087791181E+00   -3.4965101071E+00   -3.4843264987E+00
-3.4722274261E+00   -3.4602120339E+00   -3.4482794774E+00   -3.4364289224E+00
-3.4246595447E+00   -3.4129705300E+00   -3.4013610733E+00   -3.3898303788E+00
-3.3783776598E+00   -3.3670021381E+00   -3.3557030442E+00   -3.3444796171E+00
-3.3333311041E+00   -3.3222567605E+00   -3.3112558501E+00   -3.3003276446E+00
-3.2894714238E+00   -3.2786864757E+00   -3.2679720962E+00   -3.2573275896E+00
-3.2467522680E+00   -3.2362454518E+00   -3.2258064696E+00   -3.2154346582E+00
-3.2051293625E+00   -3.1948899360E+00   -3.1847157402E+00   -3.1746061449E+00
-3.1645605284E+00   -3.1545782771E+00   -3.1446587857E+00   -3.1348014573E+00
-3.1250057031E+00   -3.1152709422E+00   -3.1055966021E+00   -3.0959821182E+00
-3.0864269335E+00   -3.0769304990E+00   -3.0674922733E+00   -3.0581117223E+00
-3.0487883195E+00   -3.0395215453E+00   -3.0303108869E+00   -3.0211558394E+00
-3.0120559038E+00   -3.0030105888E+00   -2.9940194093E+00   -2.9850818799E+00
-2.9761975253E+00   -2.9673658738E+00   -2.9585864625E+00   -2.9498588542E+00
-2.9411826080E+00   -2.9325572904E+00   -2.9239824703E+00   -2.9154576861E+00
-2.9069824907E+00   -2.8985564377E+00   -2.8901790807E+00   -2.8818500056E+00
-2.8735687950E+00   -2.8653350381E+00   -2.8571483336E+00   -2.8490082756E+00
-2.8409144669E+00   -2.8328665147E+00   -2.8248640307E+00   -2.8169066309E+00
-2.8089939354E+00   -2.8011255685E+00   -2.7933011586E+00   -2.7855203382E+00
-2.7777827445E+00   -2.7700880180E+00   -2.7624358038E+00   -2.7548257503E+00
-2.7472575103E+00   -2.7397307401E+00   -2.7322450997E+00   -2.7248002530E+00
-2.7173958674E+00   -2.7100316141E+00   -2.7027071676E+00   -2.6954222062E+00
-2.6881764112E+00   -2.6809694679E+00   -2.6738010645E+00   -2.6666708928E+00
-2.6595786477E+00   -2.6525240275E+00   -2.6455067334E+00   -2.6385264702E+00
-2.6315829454E+00   -2.6246758698E+00   -2.6178049571E+00   -2.6109699241E+00
-2.6041704906E+00   -2.5974063790E+00   -2.5906773148E+00   -2.5839830265E+00
-2.5773232451E+00   -2.5706977045E+00   -2.5641061414E+00   -2.5575482949E+00
-2.5510239071E+00   -2.5445327226E+00   -2.5380744886E+00   -2.5316489548E+00
-2.5252558735E+00   -2.5188949995E+00   -2.5125660899E+00   -2.5062689045E+00
-2.5000032053E+00   -2.4937687568E+00   -2.4875653258E+00   -2.4813926813E+00
-2.4752505947E+00   -2.4691388397E+00   -2.4630571922E+00   -2.4570054303E+00
-2.4509833341E+00   -2.4449906861E+00   -2.4390272708E+00   -2.4330928749E+00
-2.4271872870E+00   -2.4213102979E+00   -2.4154617003E+00   -2.4096412890E+00
-2.4038488608E+00   -2.3980842142E+00   -2.3923471500E+00   -2.3866374706E+00
-2.3809549804E+00   -2.3752994856E+00   -2.3696707944E+00   -2.3640687167E+00
-2.3584930642E+00   -2.3529436502E+00   -2.3474202901E+00   -2.3419228008E+00
-2.3364510009E+00   -2.3310047109E+00   -2.3255837526E+00   -2.3201879499E+00
-2.3148171279E+00   -2.3094711137E+00   -2.3041497357E+00   -2.2988528241E+00
-2.2935802105E+00   -2.2883317280E+00   -2.2831072114E+00   -2.2779064969E+00
-2.2727294223E+00   -2.2675758266E+00   -2.2624455506E+00   -2.2573384364E+00
-2.2522543273E+00   -2.2471930684E+00   -2.2421545059E+00   -2.2371384875E+00
-2.2321448623E+00   -2.2271734805E+00   -2.2222241940E+00   -2.2172968557E+00
-2.2123913199E+00   -2.2075074424E+00   -2.2026450799E+00   -2.1978040905E+00
-2.1929843338E+00   -2.1881856703E+00   -2.1834079617E+00   -2.1786510713E+00
-2.1739148631E+00   -2.1691992027E+00   -2.1645039565E+00   -2.1598289923E+00
-2.1551741789E+00   -2.1505393864E+00   -2.1459244859E+00   -2.1413293495E+00
-2.1367538506E+00   -2.1321978636E+00   -2.1276612639E+00   -2.1231439280E+00
-2.1186457335E+00   -2.1141665589E+00   -2.1097062840E+00   -2.1052647893E+00
-2.1008419565E+00   -2.0964376681E+00   -2.0920518078E+00   -2.0876842603E+00
-2.0833349109E+00   -2.0790036463E+00   -2.0746903538E+00   -2.0703949219E+00
-2.0661172398E+00   -2.0618571977E+00   -2.0576146867E+00   -2.0533895989E+00
-2.0491818272E+00   -2.0449912652E+00   -2.0408178076E+00   -2.0366613500E+00
-2.0325217886E+00   -2.0283990206E+00   -2.0242929441E+00   -2.0202034579E+00
-2.0161304617E+00   -2.0120738558E+00   -2.0080335416E+00   -2.0040094211E+00
-2.0000013972E+00   -1.9960093735E+00   -1.9920332542E+00   -1.9880729447E+00
-1.9841283508E+00   -1.9801993791E+00   -1.9762859370E+00   -1.9723879325E+00
-1.9685052747E+00   -1.9646378729E+00   -1.9607856374E+00   -1.9569484792E+00
-1.9531263100E+00   -1.9493190421E+00   -1.9455265885E+00   -1.9417488630E+00
-1.9379857798E+00   -1.9342372541E+00   -1.9305032014E+00   -1.9267835383E+00
-1.9230781816E+00   -1.9193870489E+00   -1.9157100586E+00   -1.9120471294E+00
-1.9083981809E+00   -1.9047631333E+00   -1.9011419071E+00   -1.8975344238E+00
-1.8939406052E+00   -1.8903603738E+00   -1.8867936528E+00   -1.8832403659E+00
-1.8797004371E+00   -1.8761737915E+00   -1.8726603542E+00   -1.8691600514E+00
-1.8656728094E+00   -1.8621985553E+00   -1.8587372166E+00   -1.8552887216E+00
-1.8518529988E+00   -1.8484299773E+00   -1.8450195870E+00   -1.8416217580E+00
-1.8382364210E+00   -1.8348635073E+00   -1.8315029486E+00   -1.8281546772E+00
-1.8248186258E+00   -1.8214947276E+00   -1.8181829162E+00   -1.8148831260E+00
-1.8115952916E+00   -1.8083193481E+00   -1.8050552311E+00   -1.8018028768E+00
-1.7985622215E+00   -1.7953332024E+00   -1.7921157568E+00   -1.7889098227E+00
-1.7857153383E+00   -1.7825322425E+00   -1.7793604745E+00   -1.7761999738E+00
-1.7730506806E+00   -1.7699125353E+00   -1.7667854790E+00   -1.7636694528E+00
-1.7605643985E+00   -1.7574702583E+00   -1.7543869748E+00   -1.7513144908E+00
-1.7482527498E+00   -1.7452016955E+00   -1.7421612721E+00   -1.7391314241E+00
-1.7361120964E+00   -1.7331032343E+00   -1.7301047835E+00   -1.7271166900E+00
-1.7241389003E+00   -1.7211713612E+00   -1.7182140198E+00   -1.7152668237E+00
-1.7123297207E+00   -1.7094026591E+00   -1.7064855874E+00   -1.7035784547E+00
-1.7006812102E+00   -1.6977938036E+00   -1.6949161847E+00   -1.6920483040E+00
-1.6891901121E+00   -1.6863415600E+00   -1.6835025989E+00   -1.6806731806E+00
-1.6778532569E+00   -1.6750427803E+00   -1.6722417032E+00   -1.6694499787E+00
</PP_LOCAL>
<PP_NONLOCAL>
<PP_BETA.1
type="real"
size="600"
columns="4"
index="1"
angular_momentum="0"
cutoff_radius_index=" 176"
cutoff_radius="    1.7500000000E+00" >
-1.7843304223E-08    5.6646201283E-02    1.1274394998E-01    1.6775599343E-01
2.2116724733E-01    2.7249530609E-01    3.2130027750E-01    3.6719373804E-01
4.0984662296E-01    4.4899588674E-01    4.8444979484E-01    5.1609173499E-01
5.4388246693E-01    5.6786076090E-01    5.8814240832E-01    6.0491762109E-01
6.1844686937E-01    6.2905523910E-01    6.3712542172E-01    6.4308947618E-01
6.4741952919E-01    6.5061760183E-01    6.5320476891E-01    6.5570987202E-01
6.5865801699E-01    6.6255909184E-01    6.6789654167E-01    6.7511663299E-01
6.8461843056E-01    6.9674469682E-01    7.1177390579E-01    7.2991354167E-01
7.5129482734E-01    7.7596899923E-01    8.0390521460E-01    8.3499014441E-01
8.6902927122E-01    9.0574987692E-01    9.4480567102E-01    9.8578297648E-01
1.0282083584E+00    1.0715575505E+00    1.1152655082E+00    1.1587373914E+00
1.2013602627E+00    1.2425152683E+00    1.2815900595E+00    1.3179912052E+00
1.3511563442E+00    1.3805658307E+00    1.4057536329E+00    1.4263172601E+00
1.4419265097E+00    1.4523308476E+00    1.4573652642E+00    1.4569544732E+00
1.4511153551E+00    1.4399575829E+00    1.4236823987E+00    1.4025795516E+00
1.3770224403E+00    1.3474615422E+00    1.3144162430E+00    1.2784652169E+00
1.2402355338E+00    1.2003906997E+00    1.1596178563E+00    1.1186143874E+00
1.0780741919E+00    1.0386738904E+00    1.0010592395E+00    9.6583202332E-01
9.3353768582E-01    9.0465395432E-01    8.7958068872E-01    8.5863116749E-01
8.4202499567E-01    8.2988279017E-01    8.2222276387E-01    8.1895929405E-01
8.1990352274E-01    8.2476599745E-01    8.3316132079E-01    8.4461473834E-01
8.5857055583E-01    8.7440224020E-01    8.9142402512E-01    9.0890381104E-01
9.2607712285E-01    9.4216186583E-01    9.5637360306E-01    9.6794106480E-01
9.7612159384E-01    9.8021622919E-01    9.7958413537E-01    9.7365609431E-01
9.6194679297E-01    9.4406566039E-01    9.1972603367E-01    8.8875246283E-01
8.5108599831E-01    8.0678734226E-01    7.5603778432E-01    6.9913788503E-01
6.3650391085E-01    5.6866206898E-01    4.9624063204E-01    4.1996008274E-01
3.4062144795E-01    2.5909302567E-01    1.7629574090E-01    9.3187394823E-02
1.0746092866E-02   -7.0046845049E-02   -1.4822417747E-01   -2.2284991542E-01
-2.9303605777E-01   -3.5795857549E-01   -4.1687233901E-01   -4.6912470720E-01
-5.1416752075E-01   -5.5156726293E-01   -5.8101318959E-01   -6.0232327182E-01
-6.1544782829E-01   -6.2047075834E-01   -6.1760835516E-01   -6.0720570780E-01
-5.8973072959E-01   -5.6576593594E-01   -5.3599810533E-01   -5.0120599008E-01
-4.6224632169E-01   -4.2003834322E-01   -3.7554714838E-01   -3.2976614313E-01
-2.8369892972E-01   -2.3834096170E-01   -1.9466128860E-01   -1.5358474138E-01
-1.1597487406E-01   -8.2619667592E-02   -5.4229320434E-02   -3.1263484803E-02
-1.4376168493E-02   -4.3448366447E-03   -1.7836070928E-04    4.5812260111E-04
-5.4038852905E-05   -1.2801399426E-04    1.9015356371E-05    1.7441425376E-05
4.1652817249E-08    1.6892279643E-08    0.0000000000E+00    0.0000000000E+00
0.0000000000E+00    0.0000000000E+00    0.0000000000E+00    0.0000000000E+00
0.0000000000E+00    0.0000000000E+00    0.0000000000E+00    0.0000000000E+00
0.0000000000E+00    0.0000000000E+00    0.0000000000E+00    0.0000000000E+00
0.0000000000E+00    0.0000000000E+00    0.0000000000E+00    0.0000000000E+00
0.0000000000E+00    0.0000000000E+00    0.0000000000E+00    0.0000000000E+00
0. 0. 0. 0.
0. 0. 0. 0.
0. 0. 0. 0.
0. 0. 0. 0.
0. 0. 0. 0.
0. 0. 0. 0.
0. 0. 0. 0.
0. 0. 0. 0.
0. 0. 0. 0.
0. 0. 0. 0.
0. 0. 0. 0.
0. 0. 0. 0.
0. 0. 0. 0.
0. 0. 0. 0.
0. 0. 0. 0.
0. 0. 0. 0.
0. 0. 0. 0.
0. 0. 0. 0.
0. 0. 0. 0.
0. 0. 0. 0.
0. 0. 0. 0.
0. 0. 0. 0.
0. 0. 0. 0.
0. 0. 0. 0.
0. 0. 0. 0.
0. 0. 0. 0.
0. 0. 0. 0.
0. 0. 0. 0.
0. 0. 0. 0.
0. 0. 0. 0.
0. 0. 0. 0.
0. 0. 0. 0.
0. 0. 0. 0.
0. 0. 0. 0.
0. 0. 0. 0.
0. 0. 0. 0.
0. 0. 0. 0.
0. 0. 0. 0.
0. 0. 0. 0.
0. 0. 0. 0.
0. 0. 0. 0.
0. 0. 0. 0.
0. 0. 0. 0.
0. 0. 0. 0.
0. 0. 0. 0.
0. 0. 0. 0.
0. 0. 0. 0.
0. 0. 0. 0.
0. 0. 0. 0.
0. 0. 0. 0.
0. 0. 0. 0.
0. 0. 0. 0.
0. 0. 0. 0.
0. 0. 0. 0.
0. 0. 0. 0.
0. 0. 0. 0.
0. 0. 0. 0.
0. 0. 0. 0.
0. 0. 0. 0.
0. 0. 0. 0.
0. 0. 0. 0.
0. 0. 0. 0.
0. 0. 0. 0.
0. 0. 0. 0.
0. 0. 0. 0.
0. 0. 0. 0.
0. 0. 0. 0.