<UPF version="2.0.1">
<PP_INFO>
NOTE!!!!
This file is trimmed with a mesh size of 600 from the original version.
Trimming performed at 2023-03-31 09:10:04.913186 by trim_upf.py version 0.1.0

This pseudopotential file has been produced using the code
ONCVPSP  (Optimized Norm-Conservinng Vanderbilt PSeudopotential)
scalar-relativistic version 3.3.0 08/16/2017 by D. R. Hamann
The code is available through a link at URL www.mat-simresearch.com.
Documentation with the package provides a full discription of the
input data below.
While it is not required under the terms of the GNU GPL, it is
suggested that you cite D. R. Hamann, Phys. Rev. B 88, 085117 (2013)
in any publication using these pseudopotentials.
<PP_INPUTFILE>
# ATOM AND REFERENCE CONFIGURATION
# atsym  z   nc   nv     iexc    psfile
Pb 82.00   12    3       4      upf
#
#   n    l    f        energy (Ha)
1    0    2.00
2    0    2.00
2    1    6.00
3    0    2.00
3    1    6.00
3    2   10.00
4    0    2.00
4    1    6.00
4    2   10.00
5    0    2.00
5    1    6.00
4    3   14.00
5    2   10.00
6    0    2.00
6    1    2.00
#
# PSEUDOPOTENTIAL AND OPTIMIZATION
# lmax
2
#
#   l,   rc,      ep,       ncon, nbas, qcut
0   2.40000  -0.44247    4    7   3.20000
1   2.40000  -0.12854    4    8   6.10000
2   2.10000  -0.77825    4    7   7.20000
#
# LOCAL POTENTIAL
# lloc, lpopt,  rc(5),   dvloc0
4    5   2.10000      0.00000
#
# VANDERBILT-KLEINMAN-BYLANDER PROJECTORs
# l, nproj, debl
0    2   2.70000
1    2   2.70000
2    2   1.00000
#
# MODEL CORE CHARGE
# icmod, fcfact, rcfact
3   6.00000   1.34000
#
# LOG DERIVATIVE ANALYSIS
# epsh1, epsh2, depsh
-15.00   12.00    0.02
#
# OUTPUT GRID
# rlmax, drl
6.00    0.01
#
# TEST CONFIGURATIONS
# ncnf
0
# nvcnf
#   n    l    f
</PP_INPUTFILE>
</PP_INFO>
<!--                               -->
<!-- END OF HUMAN READABLE SECTION -->
<!--                               -->
<PP_HEADER
generated="Generated using ONCVPSP code by D. R. Hamann"
author="anonymous"
date="171031"
comment=""
element="Pb"
pseudo_type="NC"
relativistic="scalar"
is_ultrasoft="F"
is_paw="F"
is_coulomb="F"
has_so="F"
has_wfc="F"
has_gipaw="F"
core_correction="T"
functional="PBE"
z_valence="   14.00"
total_psenergy="  -1.20423668620E+02"
rho_cutoff="   1.67700000000E+01"
l_max="2"
l_local="-1"
mesh_size="   600"
number_of_wfc="3"
number_of_proj="6"/>
<PP_MESH>
<PP_R type="real"  size="600" columns="8">
0.0000    0.0100    0.0200    0.0300    0.0400    0.0500    0.0600    0.0700
0.0800    0.0900    0.1000    0.1100    0.1200    0.1300    0.1400    0.1500
0.1600    0.1700    0.1800    0.1900    0.2000    0.2100    0.2200    0.2300
0.2400    0.2500    0.2600    0.2700    0.2800    0.2900    0.3000    0.3100
0.3200    0.3300    0.3400    0.3500    0.3600    0.3700    0.3800    0.3900
0.4000    0.4100    0.4200    0.4300    0.4400    0.4500    0.4600    0.4700
0.4800    0.4900    0.5000    0.5100    0.5200    0.5300    0.5400    0.5500
0.5600    0.5700    0.5800    0.5900    0.6000    0.6100    0.6200    0.6300
0.6400    0.6500    0.6600    0.6700    0.6800    0.6900    0.7000    0.7100
0.7200    0.7300    0.7400    0.7500    0.7600    0.7700    0.7800    0.7900
0.8000    0.8100    0.8200    0.8300    0.8400    0.8500    0.8600    0.8700
0.8800    0.8900    0.9000    0.9100    0.9200    0.9300    0.9400    0.9500
0.9600    0.9700    0.9800    0.9900    1.0000    1.0100    1.0200    1.0300
1.0400    1.0500    1.0600    1.0700    1.0800    1.0900    1.1000    1.1100
1.1200    1.1300    1.1400    1.1500    1.1600    1.1700    1.1800    1.1900
1.2000    1.2100    1.2200    1.2300    1.2400    1.2500    1.2600    1.2700
1.2800    1.2900    1.3000    1.3100    1.3200    1.3300    1.3400    1.3500
1.3600    1.3700    1.3800    1.3900    1.4000    1.4100    1.4200    1.4300
1.4400    1.4500    1.4600    1.4700    1.4800    1.4900    1.5000    1.5100
1.5200    1.5300    1.5400    1.5500    1.5600    1.5700    1.5800    1.5900
1.6000    1.6100    1.6200    1.6300    1.6400    1.6500    1.6600    1.6700
1.6800    1.6900    1.7000    1.7100    1.7200    1.7300    1.7400    1.7500
1.7600    1.7700    1.7800    1.7900    1.8000    1.8100    1.8200    1.8300
1.8400    1.8500    1.8600    1.8700    1.8800    1.8900    1.9000    1.9100
1.9200    1.9300    1.9400    1.9500    1.9600    1.9700    1.9800    1.9900
2.0000    2.0100    2.0200    2.0300    2.0400    2.0500    2.0600    2.0700
2.0800    2.0900    2.1000    2.1100    2.1200    2.1300    2.1400    2.1500
2.1600    2.1700    2.1800    2.1900    2.2000    2.2100    2.2200    2.2300
2.2400    2.2500    2.2600    2.2700    2.2800    2.2900    2.3000    2.3100
2.3200    2.3300    2.3400    2.3500    2.3600    2.3700    2.3800    2.3900
2.4000    2.4100    2.4200    2.4300    2.4400    2.4500    2.4600    2.4700
2.4800    2.4900    2.5000    2.5100    2.5200    2.5300    2.5400    2.5500
2.5600    2.5700    2.5800    2.5900    2.6000    2.6100    2.6200    2.6300
2.6400    2.6500    2.6600    2.6700    2.6800    2.6900    2.7000    2.7100
2.7200    2.7300    2.7400    2.7500    2.7600    2.7700    2.7800    2.7900
2.8000    2.8100    2.8200    2.8300    2.8400    2.8500    2.8600    2.8700
2.8800    2.8900    2.9000    2.9100    2.9200    2.9300    2.9400    2.9500
2.9600    2.9700    2.9800    2.9900    3.0000    3.0100    3.0200    3.0300
3.0400    3.0500    3.0600    3.0700    3.0800    3.0900    3.1000    3.1100
3.1200    3.1300    3.1400    3.1500    3.1600    3.1700    3.1800    3.1900
3.2000    3.2100    3.2200    3.2300    3.2400    3.2500    3.2600    3.2700
3.2800    3.2900    3.3000    3.3100    3.3200    3.3300    3.3400    3.3500
3.3600    3.3700    3.3800    3.3900    3.4000    3.4100    3.4200    3.4300
3.4400    3.4500    3.4600    3.4700    3.4800    3.4900    3.5000    3.5100
3.5200    3.5300    3.5400    3.5500    3.5600    3.5700    3.5800    3.5900
3.6000    3.6100    3.6200    3.6300    3.6400    3.6500    3.6600    3.6700
3.6800    3.6900    3.7000    3.7100    3.7200    3.7300    3.7400    3.7500
3.7600    3.7700    3.7800    3.7900    3.8000    3.8100    3.8200    3.8300
3.8400    3.8500    3.8600    3.8700    3.8800    3.8900    3.9000    3.9100
3.9200    3.9300    3.9400    3.9500    3.9600    3.9700    3.9800    3.9900
4.0000    4.0100    4.0200    4.0300    4.0400    4.0500    4.0600    4.0700
4.0800    4.0900    4.1000    4.1100    4.1200    4.1300    4.1400    4.1500
4.1600    4.1700    4.1800    4.1900    4.2000    4.2100    4.2200    4.2300
4.2400    4.2500    4.2600    4.2700    4.2800    4.2900    4.3000    4.3100
4.3200    4.3300    4.3400    4.3500    4.3600    4.3700    4.3800    4.3900
4.4000    4.4100    4.4200    4.4300    4.4400    4.4500    4.4600    4.4700
4.4800    4.4900    4.5000    4.5100    4.5200    4.5300    4.5400    4.5500
4.5600    4.5700    4.5800    4.5900    4.6000    4.6100    4.6200    4.6300
4.6400    4.6500    4.6600    4.6700    4.6800    4.6900    4.7000    4.7100
4.7200    4.7300    4.7400    4.7500    4.7600    4.7700    4.7800    4.7900
4.8000    4.8100    4.8200    4.8300    4.8400    4.8500    4.8600    4.8700
4.8800    4.8900    4.9000    4.9100    4.9200    4.9300    4.9400    4.9500
4.9600    4.9700    4.9800    4.9900    5.0000    5.0100    5.0200    5.0300
5.0400    5.0500    5.0600    5.0700    5.0800    5.0900    5.1000    5.1100
5.1200    5.1300    5.1400    5.1500    5.1600    5.1700    5.1800    5.1900
5.2000    5.2100    5.2200    5.2300    5.2400    5.2500    5.2600    5.2700
5.2800    5.2900    5.3000    5.3100    5.3200    5.3300    5.3400    5.3500
5.3600    5.3700    5.3800    5.3900    5.4000    5.4100    5.4200    5.4300
5.4400    5.4500    5.4600    5.4700    5.4800    5.4900    5.5000    5.5100
5.5200    5.5300    5.5400    5.5500    5.5600    5.5700    5.5800    5.5900
5.6000    5.6100    5.6200    5.6300    5.6400    5.6500    5.6600    5.6700
5.6800    5.6900    5.7000    5.7100    5.7200    5.7300    5.7400    5.7500
5.7600    5.7700    5.7800    5.7900    5.8000    5.8100    5.8200    5.8300
5.8400    5.8500    5.8600    5.8700    5.8800    5.8900    5.9000    5.9100
5.9200    5.9300    5.9400    5.9500    5.9600    5.9700    5.9800    5.9900
</PP_R>
<PP_RAB type="real"  size="600" columns="8">
0.0100    0.0100    0.0100    0.0100    0.0100    0.0100    0.0100    0.0100
0.0100    0.0100    0.0100    0.0100    0.0100    0.0100    0.0100    0.0100
0.0100    0.0100    0.0100    0.0100    0.0100    0.0100    0.0100    0.0100
0.0100    0.0100    0.0100    0.0100    0.0100    0.0100    0.0100    0.0100
0.0100    0.0100    0.0100    0.0100    0.0100    0.0100    0.0100    0.0100
0.0100    0.0100    0.0100    0.0100    0.0100    0.0100    0.0100    0.0100
0.0100    0.0100    0.0100    0.0100    0.0100    0.0100    0.0100    0.0100
0.0100    0.0100    0.0100    0.0100    0.0100    0.0100    0.0100    0.0100
0.0100    0.0100    0.0100    0.0100    0.0100    0.0100    0.0100    0.0100
0.0100    0.0100    0.0100    0.0100    0.0100    0.0100    0.0100    0.0100
0.0100    0.0100    0.0100    0.0100    0.0100    0.0100    0.0100    0.0100
0.0100    0.0100    0.0100    0.0100    0.0100    0.0100    0.0100    0.0100
0.0100    0.0100    0.0100    0.0100    0.0100    0.0100    0.0100    0.0100
0.0100    0.0100    0.0100    0.0100    0.0100    0.0100    0.0100    0.0100
0.0100    0.0100    0.0100    0.0100    0.0100    0.0100    0.0100    0.0100
0.0100    0.0100    0.0100    0.0100    0.0100    0.0100    0.0100    0.0100
0.0100    0.0100    0.0100    0.0100    0.0100    0.0100    0.0100    0.0100
0.0100    0.0100    0.0100    0.0100    0.0100    0.0100    0.0100    0.0100
0.0100    0.0100    0.0100    0.0100    0.0100    0.0100    0.0100    0.0100
0.0100    0.0100    0.0100    0.0100    0.0100    0.0100    0.0100    0.0100
0.0100    0.0100    0.0100    0.0100    0.0100    0.0100    0.0100    0.0100
0.0100    0.0100    0.0100    0.0100    0.0100    0.0100    0.0100    0.0100
0.0100    0.0100    0.0100    0.0100    0.0100    0.0100    0.0100    0.0100
0.0100    0.0100    0.0100    0.0100    0.0100    0.0100    0.0100    0.0100
0.0100    0.0100    0.0100    0.0100    0.0100    0.0100    0.0100    0.0100
0.0100    0.0100    0.0100    0.0100    0.0100    0.0100    0.0100    0.0100
0.0100    0.0100    0.0100    0.0100    0.0100    0.0100    0.0100    0.0100
0.0100    0.0100    0.0100    0.0100    0.0100    0.0100    0.0100    0.0100
0.0100    0.0100    0.0100    0.0100    0.0100    0.0100    0.0100    0.0100
0.0100    0.0100    0.0100    0.0100    0.0100    0.0100    0.0100    0.0100
0.0100    0.0100    0.0100    0.0100    0.0100    0.0100    0.0100    0.0100
0.0100    0.0100    0.0100    0.0100    0.0100    0.0100    0.0100    0.0100
0.0100    0.0100    0.0100    0.0100    0.0100    0.0100    0.0100    0.0100
0.0100    0.0100    0.0100    0.0100    0.0100    0.0100    0.0100    0.0100
0.0100    0.0100    0.0100    0.0100    0.0100    0.0100    0.0100    0.0100
0.0100    0.0100    0.0100    0.0100    0.0100    0.0100    0.0100    0.0100
0.0100    0.0100    0.0100    0.0100    0.0100    0.0100    0.0100    0.0100
0.0100    0.0100    0.0100    0.0100    0.0100    0.0100    0.0100    0.0100
0.0100    0.0100    0.0100    0.0100    0.0100    0.0100    0.0100    0.0100
0.0100    0.0100    0.0100    0.0100    0.0100    0.0100    0.0100    0.0100
0.0100    0.0100    0.0100    0.0100    0.0100    0.0100    0.0100    0.0100
0.0100    0.0100    0.0100    0.0100    0.0100    0.0100    0.0100    0.0100
0.0100    0.0100    0.0100    0.0100    0.0100    0.0100    0.0100    0.0100
0.0100    0.0100    0.0100    0.0100    0.0100    0.0100    0.0100    0.0100
0.0100    0.0100    0.0100    0.0100    0.0100    0.0100    0.0100    0.0100
0.0100    0.0100    0.0100    0.0100    0.0100    0.0100    0.0100    0.0100
0.0100    0.0100    0.0100    0.0100    0.0100    0.0100    0.0100    0.0100
0.0100    0.0100    0.0100    0.0100    0.0100    0.0100    0.0100    0.0100
0.0100    0.0100    0.0100    0.0100    0.0100    0.0100    0.0100    0.0100
0.0100    0.0100    0.0100    0.0100    0.0100    0.0100    0.0100    0.0100
0.0100    0.0100    0.0100    0.0100    0.0100    0.0100    0.0100    0.0100
0.0100    0.0100    0.0100    0.0100    0.0100    0.0100    0.0100    0.0100
0.0100    0.0100    0.0100    0.0100    0.0100    0.0100    0.0100    0.0100
0.0100    0.0100    0.0100    0.0100    0.0100    0.0100    0.0100    0.0100
0.0100    0.0100    0.0100    0.0100    0.0100    0.0100    0.0100    0.0100
0.0100    0.0100    0.0100    0.0100    0.0100    0.0100    0.0100    0.0100
0.0100    0.0100    0.0100    0.0100    0.0100    0.0100    0.0100    0.0100
0.0100    0.0100    0.0100    0.0100    0.0100    0.0100    0.0100    0.0100
0.0100    0.0100    0.0100    0.0100    0.0100    0.0100    0.0100    0.0100
0.0100    0.0100    0.0100    0.0100    0.0100    0.0100    0.0100    0.0100
0.0100    0.0100    0.0100    0.0100    0.0100    0.0100    0.0100    0.0100
0.0100    0.0100    0.0100    0.0100    0.0100    0.0100    0.0100    0.0100
0.0100    0.0100    0.0100    0.0100    0.0100    0.0100    0.0100    0.0100
0.0100    0.0100    0.0100    0.0100    0.0100    0.0100    0.0100    0.0100
0.0100    0.0100    0.0100    0.0100    0.0100    0.0100    0.0100    0.0100
0.0100    0.0100    0.0100    0.0100    0.0100    0.0100    0.0100    0.0100
0.0100    0.0100    0.0100    0.0100    0.0100    0.0100    0.0100    0.0100
0.0100    0.0100    0.0100    0.0100    0.0100    0.0100    0.0100    0.0100
0.0100    0.0100    0.0100    0.0100    0.0100    0.0100    0.0100    0.0100
0.0100    0.0100    0.0100    0.0100    0.0100    0.0100    0.0100    0.0100
0.0100    0.0100    0.0100    0.0100    0.0100    0.0100    0.0100    0.0100
0.0100    0.0100    0.0100    0.0100    0.0100    0.0100    0.0100    0.0100
0.0100    0.0100    0.0100    0.0100    0.0100    0.0100    0.0100    0.0100
0.0100    0.0100    0.0100    0.0100    0.0100    0.0100    0.0100    0.0100
0.0100    0.0100    0.0100    0.0100    0.0100    0.0100    0.0100    0.0100
</PP_RAB>
</PP_MESH>
<PP_LOCAL type="real"  size="600" columns="4">
-2.6990501981E+01   -2.6990273306E+01   -2.6989587193E+01   -2.6988443404E+01
-2.6986841529E+01   -2.6984780970E+01   -2.6982260915E+01   -2.6979280311E+01
-2.6975837828E+01   -2.6971931819E+01   -2.6967560275E+01   -2.6962720783E+01
-2.6957410471E+01   -2.6951625964E+01   -2.6945363332E+01   -2.6938618037E+01
-2.6931384892E+01   -2.6923658012E+01   -2.6915430775E+01   -2.6906695783E+01
-2.6897444829E+01   -2.6887668876E+01   -2.6877358029E+01   -2.6866501528E+01
-2.6855087736E+01   -2.6843104141E+01   -2.6830537362E+01   -2.6817373163E+01
-2.6803596476E+01   -2.6789191424E+01   -2.6774141357E+01   -2.6758428895E+01
-2.6742035966E+01   -2.6724943861E+01   -2.6707133288E+01   -2.6688584425E+01
-2.6669276986E+01   -2.6649190280E+01   -2.6628303279E+01   -2.6606594678E+01
-2.6584042964E+01   -2.6560626480E+01   -2.6536323490E+01   -2.6511112241E+01
-2.6484971026E+01   -2.6457878241E+01   -2.6429812445E+01   -2.6400752413E+01
-2.6370677190E+01   -2.6339566144E+01   -2.6307399012E+01   -2.6274155947E+01
-2.6239817564E+01   -2.6204364984E+01   -2.6167779877E+01   -2.6130044502E+01
-2.6091141751E+01   -2.6051055186E+01   -2.6009769086E+01   -2.5967268479E+01
-2.5923539196E+01   -2.5878567901E+01   -2.5832342144E+01   -2.5784850398E+01
-2.5736082110E+01   -2.5686027744E+01   -2.5634678826E+01   -2.5582027998E+01
-2.5528069058E+01   -2.5472797015E+01   -2.5416208134E+01   -2.5358299986E+01
-2.5299071489E+01   -2.5238522959E+01   -2.5176656148E+01   -2.5113474287E+01
-2.5048982118E+01   -2.4983185927E+01   -2.4916093569E+01   -2.4847714492E+01
-2.4778059745E+01   -2.4707141989E+01   -2.4634975495E+01   -2.4561576136E+01
-2.4486961368E+01   -2.4411150206E+01   -2.4334163192E+01   -2.4256022347E+01
-2.4176751130E+01   -2.4096374369E+01   -2.4014918205E+01   -2.3932410015E+01
-2.3848878332E+01   -2.3764352766E+01   -2.3678863916E+01   -2.3592443272E+01
-2.3505123127E+01   -2.3416936477E+01   -2.3327916924E+01   -2.3238098578E+01
-2.3147515959E+01   -2.3056203899E+01   -2.2964197447E+01   -2.2871531778E+01
-2.2778242099E+01   -2.2684363562E+01   -2.2589931180E+01   -2.2494979742E+01
-2.2399543741E+01   -2.2303657293E+01   -2.2207354069E+01   -2.2110667228E+01
-2.2013629350E+01   -2.1916272379E+01   -2.1818627561E+01   -2.1720725394E+01
-2.1622595577E+01   -2.1524266960E+01   -2.1425767505E+01   -2.1327124237E+01
-2.1228363218E+01   -2.1129509502E+01   -2.1030587116E+01   -2.0931619027E+01
-2.0832627122E+01   -2.0733632194E+01   -2.0634653930E+01   -2.0535710902E+01
-2.0436820569E+01   -2.0337999283E+01   -2.0239262302E+01   -2.0140623808E+01
-2.0042096935E+01   -1.9943693804E+01   -1.9845425567E+01   -1.9747302456E+01
-1.9649333839E+01   -1.9551528295E+01   -1.9453893676E+01   -1.9356437196E+01
-1.9259165514E+01   -1.9162084824E+01   -1.9065200952E+01   -1.8968519453E+01
-1.8872045705E+01   -1.8775785010E+01   -1.8679742688E+01   -1.8583924162E+01
-1.8488335044E+01   -1.8392981207E+01   -1.8297868850E+01   -1.8203004546E+01
-1.8108395280E+01   -1.8014048476E+01   -1.7919971995E+01   -1.7826174135E+01
-1.7732663600E+01   -1.7639449462E+01   -1.7546541104E+01   -1.7453948155E+01
-1.7361680407E+01   -1.7269747730E+01   -1.7178159980E+01   -1.7086926900E+01
-1.6996058031E+01   -1.6905562618E+01   -1.6815449534E+01   -1.6725727215E+01
-1.6636403602E+01   -1.6547486116E+01   -1.6458981645E+01   -1.6370896557E+01
-1.6283236740E+01   -1.6196007659E+01   -1.6109214445E+01   -1.6022861996E+01
-1.5936955099E+01   -1.5851498565E+01   -1.5766497366E+01   -1.5681956780E+01
-1.5597882532E+01   -1.5514280913E+01   -1.5431158897E+01   -1.5348524229E+01
-1.5266385487E+01   -1.5184752117E+01   -1.5103634435E+01   -1.5023043603E+01
-1.4942991563E+01   -1.4863490955E+01   -1.4784555001E+01   -1.4706197364E+01
-1.4628432002E+01   -1.4551272994E+01   -1.4474734368E+01   -1.4398829922E+01
-1.4323573048E+01   -1.4248976564E+01   -1.4175052546E+01   -1.4101812179E+01
-1.4029265629E+01   -1.3957421933E+01   -1.3886288837E+01   -1.3815872681E+01
-1.3746178510E+01   -1.3677209979E+01   -1.3608969049E+01   -1.3541456615E+01
-1.3474671839E+01   -1.3408610739E+01   -1.3343264239E+01   -1.3278620572E+01
-1.3214663772E+01   -1.3151375942E+01   -1.3088739926E+01   -1.3026747433E+01
-1.2965391898E+01   -1.2904667780E+01   -1.2844569063E+01   -1.2785089908E+01
-1.2726220683E+01   -1.2667950828E+01   -1.2610269844E+01   -1.2553169301E+01
-1.2496640590E+01   -1.2440674445E+01   -1.2385261174E+01   -1.2330391016E+01
-1.2276054411E+01   -1.2222241746E+01   -1.2168943420E+01   -1.2116149837E+01
-1.2063851459E+01   -1.2012038841E+01   -1.1960702653E+01   -1.1909833647E+01
-1.1859422703E+01   -1.1809460831E+01   -1.1759939335E+01   -1.1710849363E+01
-1.1662182546E+01   -1.1613931062E+01   -1.1566088133E+01   -1.1518647626E+01
-1.1471604067E+01   -1.1424953382E+01   -1.1378691469E+01   -1.1332813821E+01
-1.1287314174E+01   -1.1242186130E+01   -1.1197423012E+01   -1.1153018254E+01
-1.1108965310E+01   -1.1065258165E+01   -1.1021891889E+01   -1.0978861756E+01
-1.0936163121E+01   -1.0893790831E+01   -1.0851740000E+01   -1.0810005890E+01
-1.0768584200E+01   -1.0727470727E+01   -1.0686661448E+01   -1.0646152423E+01
-1.0605939880E+01   -1.0566020191E+01   -1.0526389878E+01   -1.0487045594E+01
-1.0447984126E+01   -1.0409202379E+01   -1.0370697381E+01   -1.0332466269E+01
-1.0294506287E+01   -1.0256814781E+01   -1.0219389189E+01   -1.0182227036E+01
-1.0145325929E+01   -1.0108683550E+01   -1.0072297647E+01   -1.0036166032E+01
-1.0000286573E+01   -9.9646571872E+00   -9.9292758352E+00   -9.8941405164E+00
-9.8592492630E+00   -9.8246001343E+00   -9.7901912118E+00   -9.7560205951E+00
-9.7220863966E+00   -9.6883867378E+00   -9.6549197454E+00   -9.6216835481E+00
-9.5886762731E+00   -9.5558960433E+00   -9.5233409756E+00   -9.4910091782E+00
-9.4588987492E+00   -9.4270077754E+00   -9.3953343313E+00   -9.3638764785E+00
-9.3326322655E+00   -9.3015997276E+00   -9.2707768879E+00   -9.2401617569E+00
-9.2097523345E+00   -9.1795466105E+00   -9.1495425662E+00   -9.1197381759E+00
-9.0901314090E+00   -9.0607202313E+00   -9.0315026077E+00   -9.0024765040E+00
-8.9736398888E+00   -8.9449907365E+00   -8.9165270289E+00   -8.8882467580E+00
-8.8601479280E+00   -8.8322285574E+00   -8.8044866818E+00   -8.7769203554E+00
-8.7495276533E+00   -8.7223066735E+00   -8.6952555388E+00   -8.6683723980E+00
-8.6416554283E+00   -8.6151028360E+00   -8.5887128584E+00   -8.5624837643E+00
-8.5364138556E+00   -8.5105014677E+00   -8.4847449705E+00   -8.4591427686E+00
-8.4336933020E+00   -8.4083950461E+00   -8.3832465115E+00   -8.3582462447E+00
-8.3333928267E+00   -8.3086848739E+00   -8.2841210366E+00   -8.2596999988E+00
-8.2354204773E+00   -8.2112812212E+00   -8.1872810104E+00   -8.1634186550E+00
-8.1396929937E+00   -8.1161028931E+00   -8.0926472462E+00   -8.0693249710E+00
-8.0461350090E+00   -8.0230763242E+00   -8.0001479014E+00   -7.9773487446E+00
-7.9546778760E+00   -7.9321343339E+00   -7.9097171718E+00   -7.8874254570E+00
-7.8652582686E+00   -7.8432146970E+00   -7.8212938418E+00   -7.7994948112E+00
-7.7778167205E+00   -7.7562586911E+00   -7.7348198493E+00   -7.7134993257E+00
-7.6922962540E+00   -7.6712097707E+00   -7.6502390138E+00   -7.6293831225E+00
-7.6086412370E+00   -7.5880124979E+00   -7.5674960459E+00   -7.5470910214E+00
-7.5267965647E+00   -7.5066118160E+00   -7.4865359154E+00   -7.4665680029E+00
-7.4467072189E+00   -7.4269527041E+00   -7.4073036005E+00   -7.3877590513E+00
-7.3683182013E+00   -7.3489801980E+00   -7.3297441915E+00   -7.3106093355E+00
-7.2915747877E+00   -7.2726397105E+00   -7.2538032717E+00   -7.2350646448E+00
-7.2164230098E+00   -7.1978775541E+00   -7.1794274726E+00   -7.1610719683E+00
-7.1428102531E+00   -7.1246415482E+00   -7.1065650843E+00   -7.0885801023E+00
-7.0706858536E+00   -7.0528815997E+00   -7.0351666142E+00   -7.0175401810E+00
-7.0000015960E+00   -6.9825501661E+00   -6.9651852104E+00   -6.9479060573E+00
-6.9307120479E+00   -6.9136025347E+00   -6.8965768822E+00   -6.8796344657E+00
-6.8627746708E+00   -6.8459968947E+00   -6.8293005450E+00   -6.8126850113E+00
-6.7961497364E+00   -6.7796941901E+00   -6.7633178233E+00   -6.7470200842E+00
-6.7308005516E+00   -6.7146585546E+00   -6.6985933849E+00   -6.6826044269E+00
-6.6666911007E+00   -6.6508525827E+00   -6.6350886418E+00   -6.6193991552E+00
-6.6037838729E+00   -6.5882425353E+00   -6.5727751677E+00   -6.5573811797E+00
-6.5420597692E+00   -6.5268102810E+00   -6.5116320314E+00   -6.4965241564E+00
-6.4814860535E+00   -6.4665173595E+00   -6.4516175795E+00   -6.4367862450E+00
-6.4220229439E+00   -6.4073272593E+00   -6.3926986663E+00   -6.3781367100E+00
-6.3636409394E+00   -6.3492109075E+00   -6.3348461698E+00   -6.3205462860E+00
-6.3063108182E+00   -6.2921393315E+00   -6.2780313947E+00   -6.2639865753E+00
-6.2500044539E+00   -6.2360846124E+00   -6.2222266356E+00   -6.2084301122E+00
-6.1946946346E+00   -6.1810197986E+00   -6.1674052034E+00   -6.1538504518E+00
-6.1403551502E+00   -6.1269189084E+00   -6.1135413396E+00   -6.1002220602E+00
-6.0869606903E+00   -6.0737568529E+00   -6.0606101746E+00   -6.0475202850E+00
-6.0344868170E+00   -6.0215094066E+00   -6.0085876929E+00   -5.9957213182E+00
-5.9829099277E+00   -5.9701531698E+00   -5.9574506958E+00   -5.9448021599E+00
-5.9322072193E+00   -5.9196655342E+00   -5.9071767675E+00   -5.8947405849E+00
-5.8823566551E+00   -5.8700246495E+00   -5.8577442421E+00   -5.8455151099E+00
-5.8333369324E+00   -5.8212093918E+00   -5.8091321729E+00   -5.7971049633E+00
-5.7851274528E+00   -5.7731993342E+00   -5.7613203024E+00   -5.7494900553E+00
-5.7377082928E+00   -5.7259747176E+00   -5.7142890345E+00   -5.7026509510E+00
-5.6910601769E+00   -5.6795164243E+00   -5.6680194076E+00   -5.6565688435E+00
-5.6451644512E+00   -5.6338059519E+00   -5.6224930691E+00   -5.6112255287E+00
-5.6000030586E+00   -5.5888253888E+00   -5.5776922516E+00   -5.5666033816E+00
-5.5555585151E+00   -5.5445573907E+00   -5.5335997492E+00   -5.5226853332E+00
-5.5118138874E+00   -5.5009851587E+00   -5.4901988957E+00   -5.4794548491E+00
-5.4687527715E+00   -5.4580924176E+00   -5.4474735437E+00   -5.4368959083E+00
-5.4263592717E+00   -5.4158633958E+00   -5.4054080447E+00   -5.3949929841E+00
-5.3846179815E+00   -5.3742828063E+00   -5.3639872296E+00   -5.3537310242E+00
-5.3435139648E+00   -5.3333358276E+00   -5.3231963907E+00   -5.3130954338E+00
-5.3030327382E+00   -5.2930080869E+00   -5.2830212646E+00   -5.2730720575E+00
-5.2631602536E+00   -5.2532856424E+00   -5.2434480148E+00   -5.2336471635E+00
-5.2238828827E+00   -5.2141549680E+00   -5.2044632166E+00   -5.1948074274E+00
-5.1851874004E+00   -5.1756029375E+00   -5.1660538416E+00   -5.1565399175E+00
-5.1470609712E+00   -5.1376168101E+00   -5.1282072431E+00   -5.1188320804E+00
-5.1094911338E+00   -5.1001842163E+00   -5.0909111422E+00   -5.0816717272E+00
-5.0724657885E+00   -5.0632931445E+00   -5.0541536147E+00   -5.0450470203E+00
-5.0359731836E+00   -5.0269319280E+00   -5.0179230785E+00   -5.0089464611E+00
-5.0000019032E+00   -4.9910892332E+00   -4.9822082810E+00   -4.9733588776E+00
-4.9645408552E+00   -4.9557540471E+00   -4.9469982878E+00   -4.9382734132E+00
-4.9295792601E+00   -4.9209156664E+00   -4.9122824714E+00   -4.9036795154E+00
-4.8951066397E+00   -4.8865636869E+00   -4.8780505005E+00   -4.8695669254E+00
-4.8611128072E+00   -4.8526879927E+00   -4.8442923300E+00   -4.8359256679E+00
-4.8275878564E+00   -4.8192787466E+00   -4.8109981906E+00   -4.8027460413E+00
-4.7945221529E+00   -4.7863263804E+00   -4.7781585800E+00   -4.7700186085E+00
-4.7619063242E+00   -4.7538215859E+00   -4.7457642535E+00   -4.7377341880E+00
-4.7297312512E+00   -4.7217553058E+00   -4.7138062155E+00   -4.7058838449E+00
-4.6979880595E+00   -4.6901187258E+00   -4.6822757109E+00   -4.6744588832E+00
</PP_LOCAL>
<PP_NONLOCAL>
<PP_BETA.1
type="real"
size="600"
columns="4"
index="1"
angular_momentum="0"
cutoff_radius_index=" 248"
cutoff_radius="    2.4700000000E+00" >
2.3159599238E-12    5.2861253650E-03    1.0607513983E-02    1.5999315173E-02
2.1496450672E-02    2.7133501568E-02    3.2944596095E-02    3.8963298580E-02
4.5222499822E-02    5.1754309185E-02    5.8589948682E-02    6.5759649321E-02
7.3292549986E-02    8.1216599110E-02    8.9558459399E-02    9.8343415865E-02
1.0759528740E-01    1.1733634215E-01    1.2758721687E-01    1.3836684055E-01
1.4969236247E-01    1.6157908491E-01    1.7404040069E-01    1.8708773574E-01
2.0073049684E-01    2.1497602477E-01    2.2982955289E-01    2.4529417140E-01
2.6137079732E-01    2.7805815036E-01    2.9535273476E-01    3.1324882711E-01
3.3173847034E-01    3.5081147383E-01    3.7045541972E-01    3.9065567546E-01
4.1139541255E-01    4.3265563149E-01    4.5441519293E-01    4.7665085498E-01
4.9933731656E-01    5.2244726680E-01    5.4595144034E-01    5.6981867845E-01
5.9401599584E-01    6.1850865302E-01    6.4326023406E-01    6.6823272957E-01
6.9338662472E-01    7.1868099207E-01    7.4407358910E-01    7.6952096002E-01
7.9497854182E-01    8.2040077412E-01    8.4574121271E-01    8.7095264636E-01
8.9598721667E-01    9.2079654068E-01    9.4533183584E-01    9.6954404705E-01
9.9338397550E-01    1.0168024088E+00    1.0397502523E+00    1.0621786609E+00
1.0840391713E+00    1.1052838341E+00    1.1258653459E+00    1.1457371797E+00
1.1648537149E+00    1.1831703658E+00    1.2006437074E+00    1.2172315996E+00
1.2328933086E+00    1.2475896251E+00    1.2612829791E+00    1.2739375511E+00
1.2855193791E+00    1.2959964615E+00    1.3053388545E+00    1.3135187650E+00
1.3205106385E+00    1.3262912402E+00    1.3308397312E+00    1.3341377382E+00
1.3361694168E+00    1.3369215075E+00    1.3363833862E+00    1.3345471065E+00
1.3314074352E+00    1.3269618805E+00    1.3212107126E+00    1.3141569769E+00
1.3058064996E+00    1.2961678850E+00    1.2852525060E+00    1.2730744861E+00
1.2596506742E+00    1.2450006111E+00    1.2291464893E+00    1.2121131044E+00
1.1939277994E+00    1.1746204020E+00    1.1542231545E+00    1.1327706367E+00
1.1102996823E+00    1.0868492889E+00    1.0624605214E+00    1.0371764099E+00
1.0110418413E+00    9.8410344658E-01    9.5640948175E-01    9.2800970534E-01
8.9895525085E-01    8.6929849560E-01    8.3909292590E-01    8.0839299926E-01
7.7725400379E-01    7.4573191540E-01    7.1388325312E-01    6.8176493312E-01
6.4943412176E-01    6.1694808815E-01    5.8436405672E-01    5.5173906028E-01
5.1912979389E-01    4.8659247018E-01    4.5418267640E-01    4.2195523383E-01
3.8996405979E-01    3.5826203285E-01    3.2690086152E-01    2.9593095700E-01
2.6540131015E-01    2.3535937336E-01    2.0585094733E-01    1.7692007349E-01
1.4860893204E-01    1.2095774617E-01    9.4004692609E-02    6.7785818842E-02
4.2334967194E-02    1.7683706012E-02   -6.1387318449E-03   -2.9105503050E-02
-5.1192200267E-02   -7.2376890848E-02   -9.2640147751E-02   -1.1196507257E-01
-1.3033731063E-01   -1.4774505823E-01   -1.6417906192E-01   -1.7963261000E-01
-1.9410151614E-01   -2.0758409548E-01   -2.2008113309E-01   -2.3159584505E-01
-2.4213383238E-01   -2.5170302792E-01   -2.6031363652E-01   -2.6797806859E-01
-2.7471086756E-01   -2.8052863129E-01   -2.8544992787E-01   -2.8949520619E-01
-2.9268670146E-01   -2.9504833626E-01   -2.9660561730E-01   -2.9738552845E-01
-2.9741642032E-01   -2.9672789689E-01   -2.9535069955E-01   -2.9331658903E-01
-2.9065822559E-01   -2.8740904802E-01   -2.8360315173E-01   -2.7927516650E-01
-2.7446013425E-01   -2.6919338731E-01   -2.6351042758E-01   -2.5744680700E-01
-2.5103800975E-01   -2.4431933662E-01   -2.3732579179E-01   -2.3009197271E-01
-2.2265196293E-01   -2.1503922883E-01   -2.0728652006E-01   -1.9942577431E-01
-1.9148802660E-01   -1.8350332325E-01   -1.7550064111E-01   -1.6750781173E-01
-1.5955145139E-01   -1.5165689635E-01   -1.4384814426E-01   -1.3614780128E-01
-1.2857703524E-01   -1.2115553516E-01   -1.1390147644E-01   -1.0683149291E-01
-9.9960654432E-02   -9.3302451191E-02   -8.6868783865E-02   -8.0669959842E-02
-7.4714694802E-02   -6.9010124623E-02   -6.3561809289E-02   -5.8373769297E-02