<UPF version="2.0.1">
<PP_INFO>
NOTE!!!!
This file is trimmed with a mesh size of 600 from the original version.
Trimming performed at 2023-03-31 09:10:04.892289 by trim_upf.py version 0.1.0

This pseudopotential file has been produced using the code
ONCVPSP  (Optimized Norm-Conservinng Vanderbilt PSeudopotential)
scalar-relativistic version 3.3.0 08/16/2017 by D. R. Hamann
The code is available through a link at URL www.mat-simresearch.com.
Documentation with the package provides a full discription of the
input data below.
While it is not required under the terms of the GNU GPL, it is
suggested that you cite D. R. Hamann, Phys. Rev. B 88, 085117 (2013)
in any publication using these pseudopotentials.
<PP_INPUTFILE>
# ATOM AND REFERENCE CONFIGURATION
# atsym  z   nc   nv     iexc    psfile
Pd 46.00    6    3       4      upf
#
#   n    l    f        energy (Ha)
1    0    2.00
2    0    2.00
2    1    6.00
3    0    2.00
3    1    6.00
3    2   10.00
4    0    2.00
4    1    6.00
4    2   10.00
#
# PSEUDOPOTENTIAL AND OPTIMIZATION
# lmax
2
#
#   l,   rc,      ep,       ncon, nbas, qcut
0   1.40000  -3.13589    4    7   8.80000
1   1.45000  -1.88153    4    7   8.80000
2   1.55000  -0.14875    4    7   8.80000
#
# LOCAL POTENTIAL
# lloc, lpopt,  rc(5),   dvloc0
4    5   1.40000      0.00000
#
# VANDERBILT-KLEINMAN-BYLANDER PROJECTORs
# l, nproj, debl
0    2   3.01381
1    2   1.87003
2    2   1.50000
#
# MODEL CORE CHARGE
# icmod, fcfact, rcfact
3   7.00000   1.23000
#
# LOG DERIVATIVE ANALYSIS
# epsh1, epsh2, depsh
-14.00   12.00    0.02
#
# OUTPUT GRID
# rlmax, drl
6.00    0.01
#
# TEST CONFIGURATIONS
# ncnf
0
# nvcnf
#   n    l    f
</PP_INPUTFILE>
</PP_INFO>
<!--                               -->
<!-- END OF HUMAN READABLE SECTION -->
<!--                               -->
<PP_HEADER
generated="Generated using ONCVPSP code by D. R. Hamann"
author="anonymous"
date="171031"
comment=""
element="Pd"
pseudo_type="NC"
relativistic="scalar"
is_ultrasoft="F"
is_paw="F"
is_coulomb="F"
has_so="F"
has_wfc="F"
has_gipaw="F"
core_correction="T"
functional="PBE"
z_valence="   18.00"
total_psenergy="  -2.56432277659E+02"
rho_cutoff="   1.25100000000E+01"
l_max="2"
l_local="-1"
mesh_size="   600"
number_of_wfc="3"
number_of_proj="6"/>
<PP_MESH>
<PP_R type="real"  size="600" columns="8">
0.0000    0.0100    0.0200    0.0300    0.0400    0.0500    0.0600    0.0700
0.0800    0.0900    0.1000    0.1100    0.1200    0.1300    0.1400    0.1500
0.1600    0.1700    0.1800    0.1900    0.2000    0.2100    0.2200    0.2300
0.2400    0.2500    0.2600    0.2700    0.2800    0.2900    0.3000    0.3100
0.3200    0.3300    0.3400    0.3500    0.3600    0.3700    0.3800    0.3900
0.4000    0.4100    0.4200    0.4300    0.4400    0.4500    0.4600    0.4700
0.4800    0.4900    0.5000    0.5100    0.5200    0.5300    0.5400    0.5500
0.5600    0.5700    0.5800    0.5900    0.6000    0.6100    0.6200    0.6300
0.6400    0.6500    0.6600    0.6700    0.6800    0.6900    0.7000    0.7100
0.7200    0.7300    0.7400    0.7500    0.7600    0.7700    0.7800    0.7900
0.8000    0.8100    0.8200    0.8300    0.8400    0.8500    0.8600    0.8700
0.8800    0.8900    0.9000    0.9100    0.9200    0.9300    0.9400    0.9500
0.9600    0.9700    0.9800    0.9900    1.0000    1.0100    1.0200    1.0300
1.0400    1.0500    1.0600    1.0700    1.0800    1.0900    1.1000    1.1100
1.1200    1.1300    1.1400    1.1500    1.1600    1.1700    1.1800    1.1900
1.2000    1.2100    1.2200    1.2300    1.2400    1.2500    1.2600    1.2700
1.2800    1.2900    1.3000    1.3100    1.3200    1.3300    1.3400    1.3500
1.3600    1.3700    1.3800    1.3900    1.4000    1.4100    1.4200    1.4300
1.4400    1.4500    1.4600    1.4700    1.4800    1.4900    1.5000    1.5100
1.5200    1.5300    1.5400    1.5500    1.5600    1.5700    1.5800    1.5900
1.6000    1.6100    1.6200    1.6300    1.6400    1.6500    1.6600    1.6700
1.6800    1.6900    1.7000    1.7100    1.7200    1.7300    1.7400    1.7500
1.7600    1.7700    1.7800    1.7900    1.8000    1.8100    1.8200    1.8300
1.8400    1.8500    1.8600    1.8700    1.8800    1.8900    1.9000    1.9100
1.9200    1.9300    1.9400    1.9500    1.9600    1.9700    1.9800    1.9900
2.0000    2.0100    2.0200    2.0300    2.0400    2.0500    2.0600    2.0700
2.0800    2.0900    2.1000    2.1100    2.1200    2.1300    2.1400    2.1500
2.1600    2.1700    2.1800    2.1900    2.2000    2.2100    2.2200    2.2300
2.2400    2.2500    2.2600    2.2700    2.2800    2.2900    2.3000    2.3100
2.3200    2.3300    2.3400    2.3500    2.3600    2.3700    2.3800    2.3900
2.4000    2.4100    2.4200    2.4300    2.4400    2.4500    2.4600    2.4700
2.4800    2.4900    2.5000    2.5100    2.5200    2.5300    2.5400    2.5500
2.5600    2.5700    2.5800    2.5900    2.6000    2.6100    2.6200    2.6300
2.6400    2.6500    2.6600    2.6700    2.6800    2.6900    2.7000    2.7100
2.7200    2.7300    2.7400    2.7500    2.7600    2.7700    2.7800    2.7900
2.8000    2.8100    2.8200    2.8300    2.8400    2.8500    2.8600    2.8700
2.8800    2.8900    2.9000    2.9100    2.9200    2.9300    2.9400    2.9500
2.9600    2.9700    2.9800    2.9900    3.0000    3.0100    3.0200    3.0300
3.0400    3.0500    3.0600    3.0700    3.0800    3.0900    3.1000    3.1100
3.1200    3.1300    3.1400    3.1500    3.1600    3.1700    3.1800    3.1900
3.2000    3.2100    3.2200    3.2300    3.2400    3.2500    3.2600    3.2700
3.2800    3.2900    3.3000    3.3100    3.3200    3.3300    3.3400    3.3500
3.3600    3.3700    3.3800    3.3900    3.4000    3.4100    3.4200    3.4300
3.4400    3.4500    3.4600    3.4700    3.4800    3.4900    3.5000    3.5100
3.5200    3.5300    3.5400    3.5500    3.5600    3.5700    3.5800    3.5900
3.6000    3.6100    3.6200    3.6300    3.6400    3.6500    3.6600    3.6700
3.6800    3.6900    3.7000    3.7100    3.7200    3.7300    3.7400    3.7500
3.7600    3.7700    3.7800    3.7900    3.8000    3.8100    3.8200    3.8300
3.8400    3.8500    3.8600    3.8700    3.8800    3.8900    3.9000    3.9100
3.9200    3.9300    3.9400    3.9500    3.9600    3.9700    3.9800    3.9900
4.0000    4.0100    4.0200    4.0300    4.0400    4.0500    4.0600    4.0700
4.0800    4.0900    4.1000    4.1100    4.1200    4.1300    4.1400    4.1500
4.1600    4.1700    4.1800    4.1900    4.2000    4.2100    4.2200    4.2300
4.2400    4.2500    4.2600    4.2700    4.2800    4.2900    4.3000    4.3100
4.3200    4.3300    4.3400    4.3500    4.3600    4.3700    4.3800    4.3900
4.4000    4.4100    4.4200    4.4300    4.4400    4.4500    4.4600    4.4700
4.4800    4.4900    4.5000    4.5100    4.5200    4.5300    4.5400    4.5500
4.5600    4.5700    4.5800    4.5900    4.6000    4.6100    4.6200    4.6300
4.6400    4.6500    4.6600    4.6700    4.6800    4.6900    4.7000    4.7100
4.7200    4.7300    4.7400    4.7500    4.7600    4.7700    4.7800    4.7900
4.8000    4.8100    4.8200    4.8300    4.8400    4.8500    4.8600    4.8700
4.8800    4.8900    4.9000    4.9100    4.9200    4.9300    4.9400    4.9500
4.9600    4.9700    4.9800    4.9900    5.0000    5.0100    5.0200    5.0300
5.0400    5.0500    5.0600    5.0700    5.0800    5.0900    5.1000    5.1100
5.1200    5.1300    5.1400    5.1500    5.1600    5.1700    5.1800    5.1900
5.2000    5.2100    5.2200    5.2300    5.2400    5.2500    5.2600    5.2700
5.2800    5.2900    5.3000    5.3100    5.3200    5.3300    5.3400    5.3500
5.3600    5.3700    5.3800    5.3900    5.4000    5.4100    5.4200    5.4300
5.4400    5.4500    5.4600    5.4700    5.4800    5.4900    5.5000    5.5100
5.5200    5.5300    5.5400    5.5500    5.5600    5.5700    5.5800    5.5900
5.6000    5.6100    5.6200    5.6300    5.6400    5.6500    5.6600    5.6700
5.6800    5.6900    5.7000    5.7100    5.7200    5.7300    5.7400    5.7500
5.7600    5.7700    5.7800    5.7900    5.8000    5.8100    5.8200    5.8300
5.8400    5.8500    5.8600    5.8700    5.8800    5.8900    5.9000    5.9100
5.9200    5.9300    5.9400    5.9500    5.9600    5.9700    5.9800    5.9900
</PP_R>
<PP_RAB type="real"  size="600" columns="8">
0.0100    0.0100    0.0100    0.0100    0.0100    0.0100    0.0100    0.0100
0.0100    0.0100    0.0100    0.0100    0.0100    0.0100    0.0100    0.0100
0.0100    0.0100    0.0100    0.0100    0.0100    0.0100    0.0100    0.0100
0.0100    0.0100    0.0100    0.0100    0.0100    0.0100    0.0100    0.0100
0.0100    0.0100    0.0100    0.0100    0.0100    0.0100    0.0100    0.0100
0.0100    0.0100    0.0100    0.0100    0.0100    0.0100    0.0100    0.0100
0.0100    0.0100    0.0100    0.0100    0.0100    0.0100    0.0100    0.0100
0.0100    0.0100    0.0100    0.0100    0.0100    0.0100    0.0100    0.0100
0.0100    0.0100    0.0100    0.0100    0.0100    0.0100    0.0100    0.0100
0.0100    0.0100    0.0100    0.0100    0.0100    0.0100    0.0100    0.0100
0.0100    0.0100    0.0100    0.0100    0.0100    0.0100    0.0100    0.0100
0.0100    0.0100    0.0100    0.0100    0.0100    0.0100    0.0100    0.0100
0.0100    0.0100    0.0100    0.0100    0.0100    0.0100    0.0100    0.0100
0.0100    0.0100    0.0100    0.0100    0.0100    0.0100    0.0100    0.0100
0.0100    0.0100    0.0100    0.0100    0.0100    0.0100    0.0100    0.0100
0.0100    0.0100    0.0100    0.0100    0.0100    0.0100    0.0100    0.0100
0.0100    0.0100    0.0100    0.0100    0.0100    0.0100    0.0100    0.0100
0.0100    0.0100    0.0100    0.0100    0.0100    0.0100    0.0100    0.0100
0.0100    0.0100    0.0100    0.0100    0.0100    0.0100    0.0100    0.0100
0.0100    0.0100    0.0100    0.0100    0.0100    0.0100    0.0100    0.0100
0.0100    0.0100    0.0100    0.0100    0.0100    0.0100    0.0100    0.0100
0.0100    0.0100    0.0100    0.0100    0.0100    0.0100    0.0100    0.0100
0.0100    0.0100    0.0100    0.0100    0.0100    0.0100    0.0100    0.0100
0.0100    0.0100    0.0100    0.0100    0.0100    0.0100    0.0100    0.0100
0.0100    0.0100    0.0100    0.0100    0.0100    0.0100    0.0100    0.0100
0.0100    0.0100    0.0100    0.0100    0.0100    0.0100    0.0100    0.0100
0.0100    0.0100    0.0100    0.0100    0.0100    0.0100    0.0100    0.0100
0.0100    0.0100    0.0100    0.0100    0.0100    0.0100    0.0100    0.0100
0.0100    0.0100    0.0100    0.0100    0.0100    0.0100    0.0100    0.0100
0.0100    0.0100    0.0100    0.0100    0.0100    0.0100    0.0100    0.0100
0.0100    0.0100    0.0100    0.0100    0.0100    0.0100    0.0100    0.0100
0.0100    0.0100    0.0100    0.0100    0.0100    0.0100    0.0100    0.0100
0.0100    0.0100    0.0100    0.0100    0.0100    0.0100    0.0100    0.0100
0.0100    0.0100    0.0100    0.0100    0.0100    0.0100    0.0100    0.0100
0.0100    0.0100    0.0100    0.0100    0.0100    0.0100    0.0100    0.0100
0.0100    0.0100    0.0100    0.0100    0.0100    0.0100    0.0100    0.0100
0.0100    0.0100    0.0100    0.0100    0.0100    0.0100    0.0100    0.0100
0.0100    0.0100    0.0100    0.0100    0.0100    0.0100    0.0100    0.0100
0.0100    0.0100    0.0100    0.0100    0.0100    0.0100    0.0100    0.0100
0.0100    0.0100    0.0100    0.0100    0.0100    0.0100    0.0100    0.0100
0.0100    0.0100    0.0100    0.0100    0.0100    0.0100    0.0100    0.0100
0.0100    0.0100    0.0100    0.0100    0.0100    0.0100    0.0100    0.0100
0.0100    0.0100    0.0100    0.0100    0.0100    0.0100    0.0100    0.0100
0.0100    0.0100    0.0100    0.0100    0.0100    0.0100    0.0100    0.0100
0.0100    0.0100    0.0100    0.0100    0.0100    0.0100    0.0100    0.0100
0.0100    0.0100    0.0100    0.0100    0.0100    0.0100    0.0100    0.0100
0.0100    0.0100    0.0100    0.0100    0.0100    0.0100    0.0100    0.0100
0.0100    0.0100    0.0100    0.0100    0.0100    0.0100    0.0100    0.0100
0.0100    0.0100    0.0100    0.0100    0.0100    0.0100    0.0100    0.0100
0.0100    0.0100    0.0100    0.0100    0.0100    0.0100    0.0100    0.0100
0.0100    0.0100    0.0100    0.0100    0.0100    0.0100    0.0100    0.0100
0.0100    0.0100    0.0100    0.0100    0.0100    0.0100    0.0100    0.0100
0.0100    0.0100    0.0100    0.0100    0.0100    0.0100    0.0100    0.0100
0.0100    0.0100    0.0100    0.0100    0.0100    0.0100    0.0100    0.0100
0.0100    0.0100    0.0100    0.0100    0.0100    0.0100    0.0100    0.0100
0.0100    0.0100    0.0100    0.0100    0.0100    0.0100    0.0100    0.0100
0.0100    0.0100    0.0100    0.0100    0.0100    0.0100    0.0100    0.0100
0.0100    0.0100    0.0100    0.0100    0.0100    0.0100    0.0100    0.0100
0.0100    0.0100    0.0100    0.0100    0.0100    0.0100    0.0100    0.0100
0.0100    0.0100    0.0100    0.0100    0.0100    0.0100    0.0100    0.0100
0.0100    0.0100    0.0100    0.0100    0.0100    0.0100    0.0100    0.0100
0.0100    0.0100    0.0100    0.0100    0.0100    0.0100    0.0100    0.0100
0.0100    0.0100    0.0100    0.0100    0.0100    0.0100    0.0100    0.0100
0.0100    0.0100    0.0100    0.0100    0.0100    0.0100    0.0100    0.0100
0.0100    0.0100    0.0100    0.0100    0.0100    0.0100    0.0100    0.0100
0.0100    0.0100    0.0100    0.0100    0.0100    0.0100    0.0100    0.0100
0.0100    0.0100    0.0100    0.0100    0.0100    0.0100    0.0100    0.0100
0.0100    0.0100    0.0100    0.0100    0.0100    0.0100    0.0100    0.0100
0.0100    0.0100    0.0100    0.0100    0.0100    0.0100    0.0100    0.0100
0.0100    0.0100    0.0100    0.0100    0.0100    0.0100    0.0100    0.0100
0.0100    0.0100    0.0100    0.0100    0.0100    0.0100    0.0100    0.0100
0.0100    0.0100    0.0100    0.0100    0.0100    0.0100    0.0100    0.0100
0.0100    0.0100    0.0100    0.0100    0.0100    0.0100    0.0100    0.0100
0.0100    0.0100    0.0100    0.0100    0.0100    0.0100    0.0100    0.0100
0.0100    0.0100    0.0100    0.0100    0.0100    0.0100    0.0100    0.0100
</PP_RAB>
</PP_MESH>
<PP_LOCAL type="real"  size="600" columns="4">
-5.1540900968E+01   -5.1539480027E+01   -5.1535206774E+01   -5.1528084820E+01
-5.1518117218E+01   -5.1505307376E+01   -5.1489659287E+01   -5.1471177387E+01
-5.1449866342E+01   -5.1425730795E+01   -5.1398775093E+01   -5.1369003001E+01
-5.1336417402E+01   -5.1301020009E+01   -5.1262811069E+01   -5.1221789095E+01
-5.1177950599E+01   -5.1131289862E+01   -5.1081798716E+01   -5.1029466359E+01
-5.0974279203E+01   -5.0916220743E+01   -5.0855271468E+01   -5.0791408788E+01
-5.0724607004E+01   -5.0654837298E+01   -5.0582067751E+01   -5.0506263385E+01
-5.0427386225E+01   -5.0345395391E+01   -5.0260247194E+01   -5.0171895259E+01
-5.0080290660E+01   -4.9985382069E+01   -4.9887115916E+01   -4.9785436562E+01
-4.9680286487E+01   -4.9571606484E+01   -4.9459335867E+01   -4.9343412699E+01
-4.9223774018E+01   -4.9100356094E+01   -4.8973094691E+01   -4.8841925353E+01
-4.8706783702E+01   -4.8567605759E+01   -4.8424328292E+01   -4.8276889179E+01
-4.8125227805E+01   -4.7969285479E+01   -4.7809005893E+01   -4.7644335613E+01
-4.7475224608E+01   -4.7301626833E+01   -4.7123500860E+01   -4.6940810568E+01
-4.6753525901E+01   -4.6561623682E+01   -4.6365088499E+01   -4.6163913634E+01
-4.5958102047E+01   -4.5747667359E+01   -4.5532634829E+01   -4.5313042264E+01
-4.5088940823E+01   -4.4860395657E+01   -4.4627486327E+01   -4.4390306962E+01
-4.4148966106E+01   -4.3903586243E+01   -4.3654302994E+01   -4.3401264012E+01
-4.3144627618E+01   -4.2884561242E+01   -4.2621239752E+01   -4.2354843753E+01
-4.2085557938E+01   -4.1813569566E+01   -4.1539067127E+01   -4.1262239228E+01
-4.0983273721E+01   -4.0702357066E+01   -4.0419673916E+01   -4.0135406880E+01
-3.9849736442E+01   -3.9562840971E+01   -3.9274896799E+01   -3.8986078319E+01
-3.8696558066E+01   -3.8406506772E+01   -3.8116093362E+01   -3.7825484887E+01
-3.7534846392E+01   -3.7244340714E+01   -3.6954128233E+01   -3.6664366564E+01
-3.6375210215E+01   -3.6086810234E+01   -3.5799313832E+01   -3.5512864024E+01
-3.5227599279E+01   -3.4943653203E+01   -3.4661154251E+01   -3.4380225484E+01
-3.4100984371E+01   -3.3823542636E+01   -3.3548006147E+01   -3.3274474857E+01
-3.3003042784E+01   -3.2733798022E+01   -3.2466822798E+01   -3.2202193546E+01
-3.1939981010E+01   -3.1680250370E+01   -3.1423061375E+01   -3.1168468495E+01
-3.0916521073E+01   -3.0667263483E+01   -3.0420735294E+01   -3.0176971422E+01
-2.9936002286E+01   -2.9697853951E+01   -2.9462548270E+01   -2.9230103008E+01
-2.9000531965E+01   -2.8773845075E+01   -2.8550048504E+01   -2.8329144726E+01
-2.8111132591E+01   -2.7896007374E+01   -2.7683760814E+01   -2.7474381133E+01
-2.7267853044E+01   -2.7064157749E+01   -2.6863272912E+01   -2.6665172617E+01
-2.6469827358E+01   -2.6277203925E+01   -2.6087265314E+01   -2.5899970620E+01
-2.5715275351E+01   -2.5533132114E+01   -2.5353491993E+01   -2.5176308443E+01
-2.5001533275E+01   -2.4829115104E+01   -2.4659009174E+01   -2.4491179074E+01
-2.4325599132E+01   -2.4162243538E+01   -2.4001068396E+01   -2.3842028812E+01
-2.3685086665E+01   -2.3530203885E+01   -2.3377341838E+01   -2.3226460941E+01
-2.3077520754E+01   -2.2930479907E+01   -2.2785298389E+01   -2.2641941611E+01
-2.2500377605E+01   -2.2360575093E+01   -2.2222503143E+01   -2.2086129924E+01
-2.1951424266E+01   -2.1818356599E+01   -2.1686897850E+01   -2.1557019164E+01
-2.1428692268E+01   -2.1301889494E+01   -2.1176583691E+01   -2.1052748228E+01
-2.0930357001E+01   -2.0809384438E+01   -2.0689805494E+01   -2.0571595656E+01
-2.0454730945E+01   -2.0339187914E+01   -2.0224943654E+01   -2.0111975787E+01
-2.0000262471E+01   -1.9889782392E+01   -1.9780514761E+01   -1.9672439307E+01
-1.9565536271E+01   -1.9459786394E+01   -1.9355170905E+01   -1.9251671512E+01
-1.9149270384E+01   -1.9047950138E+01   -1.8947693823E+01   -1.8848484898E+01
-1.8750307221E+01   -1.8653145027E+01   -1.8556982910E+01   -1.8461805806E+01
-1.8367598975E+01   -1.8274347981E+01   -1.8182038682E+01   -1.8090657206E+01
-1.8000189944E+01   -1.7910623532E+01   -1.7821944843E+01   -1.7734140970E+01
-1.7647199225E+01   -1.7561107124E+01   -1.7475852385E+01   -1.7391422920E+01
-1.7307806833E+01   -1.7224992418E+01   -1.7142968152E+01   -1.7061722699E+01
-1.6981244911E+01   -1.6901523820E+01   -1.6822548648E+01   -1.6744308804E+01
-1.6666793883E+01   -1.6589993669E+01   -1.6513898137E+01   -1.6438497453E+01
-1.6363781978E+01   -1.6289742244E+01   -1.6216368970E+01   -1.6143653068E+01
-1.6071585715E+01   -1.6000158189E+01   -1.5929361968E+01   -1.5859188745E+01
-1.5789630530E+01   -1.5720678008E+01   -1.5652321988E+01   -1.5584553196E+01
-1.5517367654E+01   -1.5450761163E+01   -1.5384729001E+01   -1.5319261651E+01
-1.5254349677E+01   -1.5189984565E+01   -1.5126159902E+01   -1.5062869365E+01
-1.5000106406E+01   -1.4937864332E+01   -1.4876136660E+01   -1.4814917051E+01
-1.4754199265E+01   -1.4693977144E+01   -1.4634244645E+01   -1.4574995823E+01
-1.4516224828E+01   -1.4457925902E+01   -1.4400093380E+01   -1.4342721687E+01
-1.4285805337E+01   -1.4229338930E+01   -1.4173317152E+01   -1.4117734771E+01
-1.4062586639E+01   -1.4007867686E+01   -1.3953572921E+01   -1.3899697431E+01
-1.3846236377E+01   -1.3793184996E+01   -1.3740538597E+01   -1.3688292559E+01
-1.3636442334E+01   -1.3584983440E+01   -1.3533911463E+01   -1.3483222056E+01
-1.3432910936E+01   -1.3382973885E+01   -1.3333406745E+01   -1.3284205421E+01
-1.3235365879E+01   -1.3186884143E+01   -1.3138756295E+01   -1.3090978474E+01
-1.3043546876E+01   -1.2996457750E+01   -1.2949707401E+01   -1.2903292186E+01
-1.2857208514E+01   -1.2811452845E+01   -1.2766021690E+01   -1.2720911609E+01
-1.2676119209E+01   -1.2631641147E+01   -1.2587474125E+01   -1.2543614892E+01
-1.2500060241E+01   -1.2456807012E+01   -1.2413852085E+01   -1.2371192384E+01
-1.2328824878E+01   -1.2286746574E+01   -1.2244954520E+01   -1.2203445807E+01
-1.2162217561E+01   -1.2121266950E+01   -1.2080591179E+01   -1.2040187490E+01
-1.2000053162E+01   -1.1960185511E+01   -1.1920581887E+01   -1.1881239676E+01
-1.1842156299E+01   -1.1803329208E+01   -1.1764755893E+01   -1.1726433872E+01
-1.1688360698E+01   -1.1650533954E+01   -1.1612951257E+01   -1.1575610252E+01
-1.1538508614E+01   -1.1501644050E+01   -1.1465014295E+01   -1.1428617111E+01
-1.1392450292E+01   -1.1356511657E+01   -1.1320799052E+01   -1.1285310354E+01
-1.1250043461E+01   -1.1214996302E+01   -1.1180166830E+01   -1.1145553021E+01
-1.1111152880E+01   -1.1076964433E+01   -1.1042985734E+01   -1.1009214857E+01
-1.0975649902E+01   -1.0942288990E+01   -1.0909130268E+01   -1.0876171902E+01
-1.0843412082E+01   -1.0810849019E+01   -1.0778480947E+01   -1.0746306118E+01
-1.0714322807E+01   -1.0682529310E+01   -1.0650923942E+01   -1.0619505037E+01
-1.0588270951E+01   -1.0557220057E+01   -1.0526350749E+01   -1.0495661439E+01
-1.0465150556E+01   -1.0434816549E+01   -1.0404657884E+01   -1.0374673047E+01
-1.0344860537E+01   -1.0315218874E+01   -1.0285746593E+01   -1.0256442247E+01
-1.0227304404E+01   -1.0198331649E+01   -1.0169522584E+01   -1.0140875824E+01
-1.0112390003E+01   -1.0084063767E+01   -1.0055895780E+01   -1.0027884720E+01
-1.0000029277E+01   -9.9723281596E+00   -9.9447800883E+00   -9.9173837984E+00
-9.8901380390E+00   -9.8630415727E+00   -9.8360931759E+00   -9.8092916382E+00
-9.7826357624E+00   -9.7561243642E+00   -9.7297562723E+00   -9.7035303278E+00
-9.6774453844E+00   -9.6515003080E+00   -9.6256939767E+00   -9.6000252805E+00
-9.5744931214E+00   -9.5490964127E+00   -9.5238340796E+00   -9.4987050584E+00
-9.4737082965E+00   -9.4488427527E+00   -9.4241073964E+00   -9.3995012078E+00
-9.3750231779E+00   -9.3506723080E+00   -9.3264476098E+00   -9.3023481053E+00
-9.2783728265E+00   -9.2545208153E+00   -9.2307911235E+00   -9.2071828127E+00
-9.1836949539E+00   -9.1603266277E+00   -9.1370769238E+00   -9.1139449414E+00
-9.0909297886E+00   -9.0680305826E+00   -9.0452464495E+00   -9.0225765240E+00
-9.0000199495E+00   -8.9775758782E+00   -8.9552434703E+00   -8.9330218947E+00
-8.9109103284E+00   -8.8889079564E+00   -8.8670139719E+00   -8.8452275761E+00
-8.8235479777E+00   -8.8019743935E+00   -8.7805060478E+00   -8.7591421723E+00
-8.7378820064E+00   -8.7167247968E+00   -8.6956697973E+00   -8.6747162692E+00
-8.6538634805E+00   -8.6331107067E+00   -8.6124572299E+00   -8.5919023391E+00
-8.5714453302E+00   -8.5510855056E+00   -8.5308221745E+00   -8.5106546526E+00
-8.4905822618E+00   -8.4706043307E+00   -8.4507201941E+00   -8.4309291931E+00
-8.4112306747E+00   -8.3916239923E+00   -8.3721085051E+00   -8.3526835784E+00
-8.3333485832E+00   -8.3141028965E+00   -8.2949459010E+00   -8.2758769849E+00
-8.2568955423E+00   -8.2380009725E+00   -8.2191926806E+00   -8.2004700770E+00
-8.1818325775E+00   -8.1632796030E+00   -8.1448105799E+00   -8.1264249396E+00
-8.1081221188E+00   -8.0899015591E+00   -8.0717627072E+00   -8.0537050147E+00
-8.0357279381E+00   -8.0178309387E+00   -8.0000134828E+00   -7.9822750411E+00
-7.9646150893E+00   -7.9470331076E+00   -7.9295285806E+00   -7.9121009978E+00
-7.8947498529E+00   -7.8774746440E+00   -7.8602748739E+00   -7.8431500494E+00
-7.8260996817E+00   -7.8091232863E+00   -7.7922203829E+00   -7.7753904952E+00
-7.7586331512E+00   -7.7419478828E+00   -7.7253342260E+00   -7.7087917207E+00
-7.6923199109E+00   -7.6759183444E+00   -7.6595865727E+00   -7.6433241513E+00
-7.6271306394E+00   -7.6110055999E+00   -7.5949485995E+00   -7.5789592084E+00
-7.5630370005E+00   -7.5471815533E+00   -7.5313924477E+00   -7.5156692682E+00
-7.5000116028E+00   -7.4844190429E+00   -7.4688911832E+00   -7.4534276219E+00
-7.4380279603E+00   -7.4226918033E+00   -7.4074187588E+00   -7.3922084380E+00
-7.3770604554E+00   -7.3619744284E+00   -7.3469499777E+00   -7.3319867271E+00
-7.3170843035E+00   -7.3022423366E+00   -7.2874604592E+00   -7.2727383073E+00
-7.2580755195E+00   -7.2434717376E+00   -7.2289266059E+00   -7.2144397720E+00
-7.2000108860E+00   -7.1856396010E+00   -7.1713255726E+00   -7.1570684593E+00
-7.1428679225E+00   -7.1287236259E+00   -7.1146352362E+00   -7.1006024225E+00
-7.0866248565E+00   -7.0727022127E+00   -7.0588341680E+00   -7.0450204018E+00
-7.0312605961E+00   -7.0175544353E+00   -7.0039016062E+00   -6.9903017983E+00
-6.9767547032E+00   -6.9632600151E+00   -6.9498174304E+00   -6.9364266479E+00
-6.9230873688E+00   -6.9097992965E+00   -6.8965621367E+00   -6.8833755973E+00
-6.8702393885E+00   -6.8571532228E+00   -6.8441168146E+00   -6.8311298808E+00
-6.8181921402E+00   -6.8053033138E+00   -6.7924631247E+00   -6.7796712982E+00
-6.7669275615E+00   -6.7542316440E+00   -6.7415832769E+00   -6.7289821936E+00
-6.7164281295E+00   -6.7039208220E+00   -6.6914600101E+00   -6.6790454353E+00
-6.6666768405E+00   -6.6543539708E+00   -6.6420765731E+00   -6.6298443962E+00
-6.6176571907E+00   -6.6055147090E+00   -6.5934167054E+00   -6.5813629359E+00
-6.5693531584E+00   -6.5573871325E+00   -6.5454646195E+00   -6.5335853824E+00
-6.5217491862E+00   -6.5099557973E+00   -6.4982049839E+00   -6.4864965158E+00
-6.4748301646E+00   -6.4632057033E+00   -6.4516229069E+00   -6.4400815516E+00
-6.4285814155E+00   -6.4171222781E+00   -6.4057039206E+00   -6.3943261257E+00
-6.3829886775E+00   -6.3716913619E+00   -6.3604339662E+00   -6.3492162791E+00
-6.3380380909E+00   -6.3268991933E+00   -6.3157993796E+00   -6.3047384443E+00
-6.2937161837E+00   -6.2827323951E+00   -6.2717868775E+00   -6.2608794312E+00
-6.2500098580E+00   -6.2391779609E+00   -6.2283835443E+00   -6.2176264141E+00
-6.2069063774E+00   -6.1962232427E+00   -6.1855768197E+00   -6.1749669195E+00
-6.1643933545E+00   -6.1538559384E+00   -6.1433544861E+00   -6.1328888138E+00
-6.1224587389E+00   -6.1120640801E+00   -6.1017046574E+00   -6.0913802919E+00
-6.0810908059E+00   -6.0708360229E+00   -6.0606157677E+00   -6.0504298663E+00
-6.0402781455E+00   -6.0301604338E+00   -6.0200765605E+00   -6.0100263561E+00
</PP_LOCAL>
<PP_NONLOCAL>
<PP_BETA.1
type="real"
size="600"
columns="4"
index="1"
angular_momentum="0"
cutoff_radius_index=" 160"
cutoff_radius="    1.5900000000E+00" >
-1.2151635254E-10    6.3662790390E-02    1.2719896152E-01    1.9048236546E-01
2.5338779355E-01    3.1579143777E-01    3.7757134215E-01    4.3860784118E-01
4.9878398212E-01    5.5798592834E-01    6.1610334099E-01    6.7302973657E-01
7.2866281794E-01    7.8290477692E-01    8.3566256660E-01    8.8684814196E-01
9.3637866753E-01    9.8417669118E-01    1.0301702836E+00    1.0742931433E+00
1.1164846664E+00    1.1566899832E+00    1.1948599602E+00    1.2309511707E+00
1.2649258333E+00    1.2967517213E+00    1.3264020440E+00    1.3538553030E+00
1.3790951242E+00    1.4021100697E+00    1.4228934313E+00    1.4414430088E+00
1.4577608756E+00    1.4718531355E+00    1.4837296726E+00    1.4934038990E+00
1.5008925012E+00    1.5062151908E+00    1.5093944598E+00    1.5104553456E+00
1.5094252071E+00    1.5063335145E+00    1.5012116558E+00    1.4940927608E+00
1.4850115458E+00    1.4740041799E+00    1.4611081732E+00    1.4463622895E+00
1.4298064829E+00    1.4114818586E+00    1.3914306578E+00    1.3696962671E+00
1.3463232496E+00    1.3213573988E+00    1.2948458119E+00    1.2668369816E+00
1.2373809044E+00    1.2065292021E+00    1.1743352545E+00    1.1408543406E+00
1.1061437840E+00    1.0702631010E+00    1.0332741461E+00    9.9524125281E-01
9.5623136549E-01    9.1631415911E-01    8.7556214297E-01    8.3405074528E-01
7.9185837516E-01    7.4906645894E-01    7.0575944778E-01    6.6202479401E-01
6.1795289373E-01    5.7363699353E-01    5.2917305985E-01    4.8465960939E-01
4.4019749979E-01    3.9588968013E-01    3.5184090121E-01    3.0815738601E-01
2.6494646142E-01    2.2231615249E-01    1.8037474120E-01    1.3923029219E-01
9.8990148177E-02    5.9760398364E-02    2.1645323685E-02   -1.5253177163E-02
-5.0836176327E-02   -8.5008315298E-02   -1.1767840820E-01   -1.4876004455E-01
-1.7817218607E-01   -2.0583975172E-01   -2.3169418552E-01   -2.5567400119E-01
-2.7772529803E-01   -2.9780224247E-01   -3.1586750973E-01   -3.3189268059E-01
-3.4585858811E-01   -3.5775560989E-01   -3.6758390151E-01   -3.7535356755E-01
-3.8108476678E-01   -3.8480774890E-01   -3.8656282054E-01   -3.8640023915E-01
-3.8438003374E-01   -3.8057175231E-01   -3.7505413628E-01   -3.6791472329E-01
-3.5924937990E-01   -3.4916176701E-01   -3.3776274082E-01   -3.2516969359E-01
-3.1150583834E-01   -2.9689944283E-01   -2.8148301831E-01   -2.6539246923E-01
-2.4876621078E-01   -2.3174426098E-01   -2.1446731499E-01   -1.9707580935E-01
-1.7970898388E-01   -1.6250394963E-01   -1.4559477077E-01   -1.2911156875E-01
-1.1317965682E-01   -9.7918712816E-02   -8.3441997863E-02   -6.9855628689E-02
-5.7257910259E-02   -4.5738735568E-02   -3.5379058852E-02   -2.6250447229E-02
-1.8414716453E-02   -1.1928211886E-02   -6.8063043133E-03   -3.1092969335E-03
-9.6455694882E-04   -1.0133579818E-04    5.2935723166E-05   -1.2119668722E-05
-1.5830423935E-05    3.3058229646E-06    1.2415504667E-06    2.3023444449E-07
0.0000000000E+00    0.0000000000E+00    0.0000000000E+00    0.0000000000E+00
0.0000000000E+00    0.0000000000E+00    0.0000000000E+00    0.0000000000E+00
0.0000000000E+00    0.0000000000E+00    0.0000000000E+00    0.0000000000E+00
0. 0. 0. 0.
0. 0. 0. 0.
0. 0. 0. 0.
0. 0. 0. 0.
0. 0. 0. 0.
0. 0. 0. 0.
0. 0. 0. 0.
0. 0. 0. 0.
0. 0. 0. 0.
0. 0. 0. 0.
0. 0. 0. 0.
0. 0. 0. 0.
0. 0. 0. 0.
0. 0. 0. 0.
0. 0. 0. 0.
0. 0. 0. 0.
0. 0. 0. 0.
0. 0. 0. 0.
0. 0. 0. 0.
0. 0. 0. 0.
0. 0. 0. 0.
0. 0. 0. 0.
0. 0. 0. 0.
0. 0. 0. 0.
0. 0. 0. 0.
0. 0. 0. 0.
0. 0. 0. 0.
0. 0. 0. 0.
0. 0. 0. 0.
0. 0. 0. 0.
0. 0. 0. 0.
0. 0. 0. 0.
0. 0. 0. 0.
0. 0. 0. 0.
0. 0. 0. 0.
0. 0. 0. 0.
0. 0. 0. 0.
0. 0. 0. 0.
0. 0. 0. 0.
0. 0. 0. 0.
0. 0. 0. 0.
0. 0. 0. 0.
0. 0. 0. 0.
0. 0. 0. 0.
0. 0. 0. 0.
0. 0. 0. 0.
0. 0. 0. 0.
0. 0. 0. 0.
0. 0. 0. 0.
0. 0. 0. 0.
0. 0. 0. 0.
0. 0. 0. 0.
0. 0. 0. 0.
0. 0. 0. 0.
0. 0. 0. 0.
0. 0. 0. 0.
0. 0. 0. 0.
0. 0. 0. 0.
0. 0. 0. 0.
0. 0. 0. 0.
0. 0. 0. 0.
0. 0. 0. 0.
0. 0. 0. 0.
0. 0. 0. 0.
0. 0. 0. 0.
0. 0. 0. 0.
0. 0. 0. 0.
0. 0. 0. 0.
0. 0. 0. 0.
0. 0. 0. 0.
0. 0. 0. 0.
0. 0. 0. 0.
0. 0. 0. 0.
0. 0. 0. 0.
0. 0. 0. 0.
0. 0. 0. 0.
0. 0. 0. 0.
0. 0. 0. 0.
0. 0. 0. 0.
0. 0. 0. 0.
0. 0. 0. 0.
0. 0. 0. 0.
0. 0. 0. 0.
0. 0. 0. 0.
0. 0. 0. 0.
0. 0. 0. 0.
0. 0. 0. 0.