<UPF version="2.0.1">
<PP_INFO>
NOTE!!!!
This file is trimmed with a mesh size of 600 from the original version.
Trimming performed at 2023-03-31 09:10:04.964490 by trim_upf.py version 0.1.0

This pseudopotential file has been produced using the code
ONCVPSP  (Optimized Norm-Conservinng Vanderbilt PSeudopotential)
scalar-relativistic version 3.3.0 08/16/2017 by D. R. Hamann
The code is available through a link at URL www.mat-simresearch.com.
Documentation with the package provides a full discription of the
input data below.
While it is not required under the terms of the GNU GPL, it is
suggested that you cite D. R. Hamann, Phys. Rev. B 88, 085117 (2013)
in any publication using these pseudopotentials.
<PP_INPUTFILE>
# ATOM AND REFERENCE CONFIGURATION
# atsym  z   nc   nv     iexc    psfile
Po 84.00   12    3       4      upf
#
#   n    l    f        energy (Ha)
1    0    2.00
2    0    2.00
2    1    6.00
3    0    2.00
3    1    6.00
3    2   10.00
4    0    2.00
4    1    6.00
4    2   10.00
5    0    2.00
5    1    6.00
4    3   14.00
5    2   10.00
6    0    2.00
6    1    4.00
#
# PSEUDOPOTENTIAL AND OPTIMIZATION
# lmax
2
#
#   l,   rc,      ep,       ncon, nbas, qcut
0   2.20000  -0.62152    4    7   3.60000
1   2.20000  -0.20661    4    8   4.60000
2   1.90000  -1.22115    4    8   8.00000
#
# LOCAL POTENTIAL
# lloc, lpopt,  rc(5),   dvloc0
4    5   1.90000      0.00000
#
# VANDERBILT-KLEINMAN-BYLANDER PROJECTORs
# l, nproj, debl
0    2   2.60000
1    2   2.50000
2    2   2.50000
#
# MODEL CORE CHARGE
# icmod, fcfact, rcfact
3   6.00000   1.34000
#
# LOG DERIVATIVE ANALYSIS
# epsh1, epsh2, depsh
-12.00   12.00    0.02
#
# OUTPUT GRID
# rlmax, drl
6.00    0.01
#
# TEST CONFIGURATIONS
# ncnf
0
# nvcnf
#   n    l    f
</PP_INPUTFILE>
</PP_INFO>
<!--                               -->
<!-- END OF HUMAN READABLE SECTION -->
<!--                               -->
<PP_HEADER
generated="Generated using ONCVPSP code by D. R. Hamann"
author="anonymous"
date="171031"
comment=""
element="Po"
pseudo_type="NC"
relativistic="scalar"
is_ultrasoft="F"
is_paw="F"
is_coulomb="F"
has_so="F"
has_wfc="F"
has_gipaw="F"
core_correction="T"
functional="PBE"
z_valence="   16.00"
total_psenergy="  -1.65861946915E+02"
rho_cutoff="   1.33700000000E+01"
l_max="2"
l_local="-1"
mesh_size="   600"
number_of_wfc="3"
number_of_proj="6"/>
<PP_MESH>
<PP_R type="real"  size="600" columns="8">
0.0000    0.0100    0.0200    0.0300    0.0400    0.0500    0.0600    0.0700
0.0800    0.0900    0.1000    0.1100    0.1200    0.1300    0.1400    0.1500
0.1600    0.1700    0.1800    0.1900    0.2000    0.2100    0.2200    0.2300
0.2400    0.2500    0.2600    0.2700    0.2800    0.2900    0.3000    0.3100
0.3200    0.3300    0.3400    0.3500    0.3600    0.3700    0.3800    0.3900
0.4000    0.4100    0.4200    0.4300    0.4400    0.4500    0.4600    0.4700
0.4800    0.4900    0.5000    0.5100    0.5200    0.5300    0.5400    0.5500
0.5600    0.5700    0.5800    0.5900    0.6000    0.6100    0.6200    0.6300
0.6400    0.6500    0.6600    0.6700    0.6800    0.6900    0.7000    0.7100
0.7200    0.7300    0.7400    0.7500    0.7600    0.7700    0.7800    0.7900
0.8000    0.8100    0.8200    0.8300    0.8400    0.8500    0.8600    0.8700
0.8800    0.8900    0.9000    0.9100    0.9200    0.9300    0.9400    0.9500
0.9600    0.9700    0.9800    0.9900    1.0000    1.0100    1.0200    1.0300
1.0400    1.0500    1.0600    1.0700    1.0800    1.0900    1.1000    1.1100
1.1200    1.1300    1.1400    1.1500    1.1600    1.1700    1.1800    1.1900
1.2000    1.2100    1.2200    1.2300    1.2400    1.2500    1.2600    1.2700
1.2800    1.2900    1.3000    1.3100    1.3200    1.3300    1.3400    1.3500
1.3600    1.3700    1.3800    1.3900    1.4000    1.4100    1.4200    1.4300
1.4400    1.4500    1.4600    1.4700    1.4800    1.4900    1.5000    1.5100
1.5200    1.5300    1.5400    1.5500    1.5600    1.5700    1.5800    1.5900
1.6000    1.6100    1.6200    1.6300    1.6400    1.6500    1.6600    1.6700
1.6800    1.6900    1.7000    1.7100    1.7200    1.7300    1.7400    1.7500
1.7600    1.7700    1.7800    1.7900    1.8000    1.8100    1.8200    1.8300
1.8400    1.8500    1.8600    1.8700    1.8800    1.8900    1.9000    1.9100
1.9200    1.9300    1.9400    1.9500    1.9600    1.9700    1.9800    1.9900
2.0000    2.0100    2.0200    2.0300    2.0400    2.0500    2.0600    2.0700
2.0800    2.0900    2.1000    2.1100    2.1200    2.1300    2.1400    2.1500
2.1600    2.1700    2.1800    2.1900    2.2000    2.2100    2.2200    2.2300
2.2400    2.2500    2.2600    2.2700    2.2800    2.2900    2.3000    2.3100
2.3200    2.3300    2.3400    2.3500    2.3600    2.3700    2.3800    2.3900
2.4000    2.4100    2.4200    2.4300    2.4400    2.4500    2.4600    2.4700
2.4800    2.4900    2.5000    2.5100    2.5200    2.5300    2.5400    2.5500
2.5600    2.5700    2.5800    2.5900    2.6000    2.6100    2.6200    2.6300
2.6400    2.6500    2.6600    2.6700    2.6800    2.6900    2.7000    2.7100
2.7200    2.7300    2.7400    2.7500    2.7600    2.7700    2.7800    2.7900
2.8000    2.8100    2.8200    2.8300    2.8400    2.8500    2.8600    2.8700
2.8800    2.8900    2.9000    2.9100    2.9200    2.9300    2.9400    2.9500
2.9600    2.9700    2.9800    2.9900    3.0000    3.0100    3.0200    3.0300
3.0400    3.0500    3.0600    3.0700    3.0800    3.0900    3.1000    3.1100
3.1200    3.1300    3.1400    3.1500    3.1600    3.1700    3.1800    3.1900
3.2000    3.2100    3.2200    3.2300    3.2400    3.2500    3.2600    3.2700
3.2800    3.2900    3.3000    3.3100    3.3200    3.3300    3.3400    3.3500
3.3600    3.3700    3.3800    3.3900    3.4000    3.4100    3.4200    3.4300
3.4400    3.4500    3.4600    3.4700    3.4800    3.4900    3.5000    3.5100
3.5200    3.5300    3.5400    3.5500    3.5600    3.5700    3.5800    3.5900
3.6000    3.6100    3.6200    3.6300    3.6400    3.6500    3.6600    3.6700
3.6800    3.6900    3.7000    3.7100    3.7200    3.7300    3.7400    3.7500
3.7600    3.7700    3.7800    3.7900    3.8000    3.8100    3.8200    3.8300
3.8400    3.8500    3.8600    3.8700    3.8800    3.8900    3.9000    3.9100
3.9200    3.9300    3.9400    3.9500    3.9600    3.9700    3.9800    3.9900
4.0000    4.0100    4.0200    4.0300    4.0400    4.0500    4.0600    4.0700
4.0800    4.0900    4.1000    4.1100    4.1200    4.1300    4.1400    4.1500
4.1600    4.1700    4.1800    4.1900    4.2000    4.2100    4.2200    4.2300
4.2400    4.2500    4.2600    4.2700    4.2800    4.2900    4.3000    4.3100
4.3200    4.3300    4.3400    4.3500    4.3600    4.3700    4.3800    4.3900
4.4000    4.4100    4.4200    4.4300    4.4400    4.4500    4.4600    4.4700
4.4800    4.4900    4.5000    4.5100    4.5200    4.5300    4.5400    4.5500
4.5600    4.5700    4.5800    4.5900    4.6000    4.6100    4.6200    4.6300
4.6400    4.6500    4.6600    4.6700    4.6800    4.6900    4.7000    4.7100
4.7200    4.7300    4.7400    4.7500    4.7600    4.7700    4.7800    4.7900
4.8000    4.8100    4.8200    4.8300    4.8400    4.8500    4.8600    4.8700
4.8800    4.8900    4.9000    4.9100    4.9200    4.9300    4.9400    4.9500
4.9600    4.9700    4.9800    4.9900    5.0000    5.0100    5.0200    5.0300
5.0400    5.0500    5.0600    5.0700    5.0800    5.0900    5.1000    5.1100
5.1200    5.1300    5.1400    5.1500    5.1600    5.1700    5.1800    5.1900
5.2000    5.2100    5.2200    5.2300    5.2400    5.2500    5.2600    5.2700
5.2800    5.2900    5.3000    5.3100    5.3200    5.3300    5.3400    5.3500
5.3600    5.3700    5.3800    5.3900    5.4000    5.4100    5.4200    5.4300
5.4400    5.4500    5.4600    5.4700    5.4800    5.4900    5.5000    5.5100
5.5200    5.5300    5.5400    5.5500    5.5600    5.5700    5.5800    5.5900
5.6000    5.6100    5.6200    5.6300    5.6400    5.6500    5.6600    5.6700
5.6800    5.6900    5.7000    5.7100    5.7200    5.7300    5.7400    5.7500
5.7600    5.7700    5.7800    5.7900    5.8000    5.8100    5.8200    5.8300
5.8400    5.8500    5.8600    5.8700    5.8800    5.8900    5.9000    5.9100
5.9200    5.9300    5.9400    5.9500    5.9600    5.9700    5.9800    5.9900
</PP_R>
<PP_RAB type="real"  size="600" columns="8">
0.0100    0.0100    0.0100    0.0100    0.0100    0.0100    0.0100    0.0100
0.0100    0.0100    0.0100    0.0100    0.0100    0.0100    0.0100    0.0100
0.0100    0.0100    0.0100    0.0100    0.0100    0.0100    0.0100    0.0100
0.0100    0.0100    0.0100    0.0100    0.0100    0.0100    0.0100    0.0100
0.0100    0.0100    0.0100    0.0100    0.0100    0.0100    0.0100    0.0100
0.0100    0.0100    0.0100    0.0100    0.0100    0.0100    0.0100    0.0100
0.0100    0.0100    0.0100    0.0100    0.0100    0.0100    0.0100    0.0100
0.0100    0.0100    0.0100    0.0100    0.0100    0.0100    0.0100    0.0100
0.0100    0.0100    0.0100    0.0100    0.0100    0.0100    0.0100    0.0100
0.0100    0.0100    0.0100    0.0100    0.0100    0.0100    0.0100    0.0100
0.0100    0.0100    0.0100    0.0100    0.0100    0.0100    0.0100    0.0100
0.0100    0.0100    0.0100    0.0100    0.0100    0.0100    0.0100    0.0100
0.0100    0.0100    0.0100    0.0100    0.0100    0.0100    0.0100    0.0100
0.0100    0.0100    0.0100    0.0100    0.0100    0.0100    0.0100    0.0100
0.0100    0.0100    0.0100    0.0100    0.0100    0.0100    0.0100    0.0100
0.0100    0.0100    0.0100    0.0100    0.0100    0.0100    0.0100    0.0100
0.0100    0.0100    0.0100    0.0100    0.0100    0.0100    0.0100    0.0100
0.0100    0.0100    0.0100    0.0100    0.0100    0.0100    0.0100    0.0100
0.0100    0.0100    0.0100    0.0100    0.0100    0.0100    0.0100    0.0100
0.0100    0.0100    0.0100    0.0100    0.0100    0.0100    0.0100    0.0100
0.0100    0.0100    0.0100    0.0100    0.0100    0.0100    0.0100    0.0100
0.0100    0.0100    0.0100    0.0100    0.0100    0.0100    0.0100    0.0100
0.0100    0.0100    0.0100    0.0100    0.0100    0.0100    0.0100    0.0100
0.0100    0.0100    0.0100    0.0100    0.0100    0.0100    0.0100    0.0100
0.0100    0.0100    0.0100    0.0100    0.0100    0.0100    0.0100    0.0100
0.0100    0.0100    0.0100    0.0100    0.0100    0.0100    0.0100    0.0100
0.0100    0.0100    0.0100    0.0100    0.0100    0.0100    0.0100    0.0100
0.0100    0.0100    0.0100    0.0100    0.0100    0.0100    0.0100    0.0100
0.0100    0.0100    0.0100    0.0100    0.0100    0.0100    0.0100    0.0100
0.0100    0.0100    0.0100    0.0100    0.0100    0.0100    0.0100    0.0100
0.0100    0.0100    0.0100    0.0100    0.0100    0.0100    0.0100    0.0100
0.0100    0.0100    0.0100    0.0100    0.0100    0.0100    0.0100    0.0100
0.0100    0.0100    0.0100    0.0100    0.0100    0.0100    0.0100    0.0100
0.0100    0.0100    0.0100    0.0100    0.0100    0.0100    0.0100    0.0100
0.0100    0.0100    0.0100    0.0100    0.0100    0.0100    0.0100    0.0100
0.0100    0.0100    0.0100    0.0100    0.0100    0.0100    0.0100    0.0100
0.0100    0.0100    0.0100    0.0100    0.0100    0.0100    0.0100    0.0100
0.0100    0.0100    0.0100    0.0100    0.0100    0.0100    0.0100    0.0100
0.0100    0.0100    0.0100    0.0100    0.0100    0.0100    0.0100    0.0100
0.0100    0.0100    0.0100    0.0100    0.0100    0.0100    0.0100    0.0100
0.0100    0.0100    0.0100    0.0100    0.0100    0.0100    0.0100    0.0100
0.0100    0.0100    0.0100    0.0100    0.0100    0.0100    0.0100    0.0100
0.0100    0.0100    0.0100    0.0100    0.0100    0.0100    0.0100    0.0100
0.0100    0.0100    0.0100    0.0100    0.0100    0.0100    0.0100    0.0100
0.0100    0.0100    0.0100    0.0100    0.0100    0.0100    0.0100    0.0100
0.0100    0.0100    0.0100    0.0100    0.0100    0.0100    0.0100    0.0100
0.0100    0.0100    0.0100    0.0100    0.0100    0.0100    0.0100    0.0100
0.0100    0.0100    0.0100    0.0100    0.0100    0.0100    0.0100    0.0100
0.0100    0.0100    0.0100    0.0100    0.0100    0.0100    0.0100    0.0100
0.0100    0.0100    0.0100    0.0100    0.0100    0.0100    0.0100    0.0100
0.0100    0.0100    0.0100    0.0100    0.0100    0.0100    0.0100    0.0100
0.0100    0.0100    0.0100    0.0100    0.0100    0.0100    0.0100    0.0100
0.0100    0.0100    0.0100    0.0100    0.0100    0.0100    0.0100    0.0100
0.0100    0.0100    0.0100    0.0100    0.0100    0.0100    0.0100    0.0100
0.0100    0.0100    0.0100    0.0100    0.0100    0.0100    0.0100    0.0100
0.0100    0.0100    0.0100    0.0100    0.0100    0.0100    0.0100    0.0100
0.0100    0.0100    0.0100    0.0100    0.0100    0.0100    0.0100    0.0100
0.0100    0.0100    0.0100    0.0100    0.0100    0.0100    0.0100    0.0100
0.0100    0.0100    0.0100    0.0100    0.0100    0.0100    0.0100    0.0100
0.0100    0.0100    0.0100    0.0100    0.0100    0.0100    0.0100    0.0100
0.0100    0.0100    0.0100    0.0100    0.0100    0.0100    0.0100    0.0100
0.0100    0.0100    0.0100    0.0100    0.0100    0.0100    0.0100    0.0100
0.0100    0.0100    0.0100    0.0100    0.0100    0.0100    0.0100    0.0100
0.0100    0.0100    0.0100    0.0100    0.0100    0.0100    0.0100    0.0100
0.0100    0.0100    0.0100    0.0100    0.0100    0.0100    0.0100    0.0100
0.0100    0.0100    0.0100    0.0100    0.0100    0.0100    0.0100    0.0100
0.0100    0.0100    0.0100    0.0100    0.0100    0.0100    0.0100    0.0100
0.0100    0.0100    0.0100    0.0100    0.0100    0.0100    0.0100    0.0100
0.0100    0.0100    0.0100    0.0100    0.0100    0.0100    0.0100    0.0100
0.0100    0.0100    0.0100    0.0100    0.0100    0.0100    0.0100    0.0100
0.0100    0.0100    0.0100    0.0100    0.0100    0.0100    0.0100    0.0100
0.0100    0.0100    0.0100    0.0100    0.0100    0.0100    0.0100    0.0100
0.0100    0.0100    0.0100    0.0100    0.0100    0.0100    0.0100    0.0100
0.0100    0.0100    0.0100    0.0100    0.0100    0.0100    0.0100    0.0100
0.0100    0.0100    0.0100    0.0100    0.0100    0.0100    0.0100    0.0100
</PP_RAB>
</PP_MESH>
<PP_LOCAL type="real"  size="600" columns="4">
-3.4292153036E+01   -3.4291708345E+01   -3.4290374182E+01   -3.4288150316E+01
-3.4285036334E+01   -3.4281031607E+01   -3.4276135243E+01   -3.4270346031E+01
-3.4263662364E+01   -3.4256082170E+01   -3.4247602820E+01   -3.4238221048E+01
-3.4227932852E+01   -3.4216733409E+01   -3.4204616983E+01   -3.4191576846E+01
-3.4177605191E+01   -3.4162693072E+01   -3.4146830336E+01   -3.4130005576E+01
-3.4112206094E+01   -3.4093417874E+01   -3.4073625574E+01   -3.4052812526E+01
-3.4030960754E+01   -3.4008051002E+01   -3.3984062781E+01   -3.3958974420E+01
-3.3932763137E+01   -3.3905405116E+01   -3.3876875591E+01   -3.3847148943E+01
-3.3816198800E+01   -3.3783998143E+01   -3.3750519412E+01   -3.3715734622E+01
-3.3679615466E+01   -3.3642133431E+01   -3.3603259907E+01   -3.3562966285E+01
-3.3521224065E+01   -3.3478004952E+01   -3.3433280947E+01   -3.3387024438E+01
-3.3339208281E+01   -3.3289805883E+01   -3.3238791276E+01   -3.3186139191E+01
-3.3131825127E+01   -3.3075825419E+01   -3.3018117305E+01   -3.2958678996E+01
-3.2897489738E+01   -3.2834529879E+01   -3.2769780941E+01   -3.2703225692E+01
-3.2634848211E+01   -3.2564633972E+01   -3.2492569915E+01   -3.2418644531E+01
-3.2342847943E+01   -3.2265171993E+01   -3.2185610324E+01   -3.2104158474E+01
-3.2020813959E+01   -3.1935576363E+01   -3.1848447419E+01   -3.1759431095E+01
-3.1668533665E+01   -3.1575763783E+01   -3.1481132541E+01   -3.1384653523E+01
-3.1286342840E+01   -3.1186219165E+01   -3.1084303738E+01   -3.0980620368E+01
-3.0875195414E+01   -3.0768057750E+01   -3.0659238710E+01   -3.0548772027E+01
-3.0436693741E+01   -3.0323042106E+01   -3.0207857471E+01   -3.0091182158E+01
-2.9973060320E+01   -2.9853537799E+01   -2.9732661966E+01   -2.9610481565E+01
-2.9487046548E+01   -2.9362407906E+01   -2.9236617504E+01   -2.9109727918E+01
-2.8981792267E+01   -2.8852864058E+01   -2.8722997030E+01   -2.8592245003E+01
-2.8460661740E+01   -2.8328300804E+01   -2.8195215432E+01   -2.8061458411E+01
-2.7927081960E+01   -2.7792137622E+01   -2.7656676156E+01   -2.7520747445E+01
-2.7384400396E+01   -2.7247682863E+01   -2.7110641558E+01   -2.6973321978E+01
-2.6835768338E+01   -2.6698023499E+01   -2.6560128914E+01   -2.6422124574E+01
-2.6284048953E+01   -2.6145938976E+01   -2.6007829978E+01   -2.5869755680E+01
-2.5731748168E+01   -2.5593837888E+01   -2.5456053642E+01   -2.5318422600E+01
-2.5180970327E+01   -2.5043720812E+01   -2.4906696519E+01   -2.4769918447E+01
-2.4633406203E+01   -2.4497178091E+01   -2.4361251208E+01   -2.4225641561E+01
-2.4090364182E+01   -2.3955433266E+01   -2.3820862306E+01   -2.3686664238E+01
-2.3552851582E+01   -2.3419436590E+01   -2.3286431383E+01   -2.3153848078E+01
-2.3021698912E+01   -2.2889996336E+01   -2.2758753102E+01   -2.2627982322E+01
-2.2497697501E+01   -2.2367912541E+01   -2.2238641724E+01   -2.2109899659E+01
-2.1981701200E+01   -2.1854061345E+01   -2.1726995104E+01   -2.1600517357E+01
-2.1474642690E+01   -2.1349385231E+01   -2.1224758484E+01   -2.1100775178E+01
-2.0977447124E+01   -2.0854785111E+01   -2.0732798827E+01   -2.0611496829E+01
-2.0490886554E+01   -2.0370974391E+01   -2.0251765791E+01   -2.0133265449E+01
-2.0015477508E+01   -1.9898405826E+01   -1.9782054256E+01   -1.9666426948E+01
-1.9551528658E+01   -1.9437365038E+01   -1.9323942900E+01   -1.9211270439E+01
-1.9099357403E+01   -1.8988215194E+01   -1.8877856900E+01   -1.8768297254E+01
-1.8659552522E+01   -1.8551640311E+01   -1.8444579336E+01   -1.8338389116E+01
-1.8233089646E+01   -1.8128701042E+01   -1.8025243164E+01   -1.7922735262E+01
-1.7821195605E+01   -1.7720641167E+01   -1.7621087317E+01   -1.7522547584E+01
-1.7425033313E+01   -1.7328553597E+01   -1.7233115233E+01   -1.7138722479E+01
-1.7045377043E+01   -1.6953078210E+01   -1.6861820944E+01   -1.6771594466E+01
-1.6682384383E+01   -1.6594169578E+01   -1.6506927160E+01   -1.6420641478E+01
-1.6335305674E+01   -1.6250913416E+01   -1.6167451728E+01   -1.6084907375E+01
-1.6003268070E+01   -1.5922521369E+01   -1.5842654397E+01   -1.5763653912E+01
-1.5685506491E+01   -1.5608198580E+01   -1.5531716496E+01   -1.5456046477E+01
-1.5381174720E+01   -1.5307087414E+01   -1.5233770780E+01   -1.5161211096E+01
-1.5089394742E+01   -1.5018308221E+01   -1.4947938185E+01   -1.4878271453E+01
-1.4809295069E+01   -1.4740996275E+01   -1.4673362581E+01   -1.4606381840E+01
-1.4540042411E+01   -1.4474333023E+01   -1.4409242806E+01   -1.4344761294E+01
-1.4280878227E+01   -1.4217583182E+01   -1.4154865726E+01   -1.4092715534E+01
-1.4031122541E+01   -1.3970076891E+01   -1.3909569051E+01   -1.3849589937E+01
-1.3790130752E+01   -1.3731182888E+01   -1.3672737924E+01   -1.3614787697E+01
-1.3557324348E+01   -1.3500340285E+01   -1.3443828169E+01   -1.3387780904E+01
-1.3332191640E+01   -1.3277053768E+01   -1.3222360917E+01   -1.3168106944E+01
-1.3114285926E+01   -1.3060892159E+01   -1.3007920142E+01   -1.2955364576E+01
-1.2903220350E+01   -1.2851482537E+01   -1.2800146384E+01   -1.2749207301E+01
-1.2698660852E+01   -1.2648502751E+01   -1.2598728845E+01   -1.2549335112E+01
-1.2500317646E+01   -1.2451672653E+01   -1.2403396438E+01   -1.2355485399E+01
-1.2307936020E+01   -1.2260744856E+01   -1.2213908533E+01   -1.2167423737E+01
-1.2121287207E+01   -1.2075495726E+01   -1.2030046119E+01   -1.1984935244E+01
-1.1940159986E+01   -1.1895717256E+01   -1.1851603979E+01   -1.1807817097E+01
-1.1764353562E+01   -1.1721210333E+01   -1.1678384373E+01   -1.1635872647E+01
-1.1593672120E+01   -1.1551779757E+01   -1.1510192521E+01   -1.1468907370E+01
-1.1427921262E+01   -1.1387231151E+01   -1.1346833989E+01   -1.1306726729E+01
-1.1266906321E+01   -1.1227369721E+01   -1.1188113885E+01   -1.1149135777E+01
-1.1110432368E+01   -1.1072000638E+01   -1.1033837583E+01   -1.0995940212E+01
-1.0958305551E+01   -1.0920930648E+01   -1.0883812575E+01   -1.0846948428E+01
-1.0810335334E+01   -1.0773970449E+01   -1.0737850963E+01   -1.0701974103E+01
-1.0666337133E+01   -1.0630937357E+01   -1.0595772122E+01   -1.0560838819E+01
-1.0526134883E+01   -1.0491657797E+01   -1.0457405091E+01   -1.0423374342E+01
-1.0389563181E+01   -1.0355969283E+01   -1.0322590377E+01   -1.0289424241E+01
-1.0256468703E+01   -1.0223721639E+01   -1.0191180977E+01   -1.0158844690E+01
-1.0126710801E+01   -1.0094777377E+01   -1.0063042530E+01   -1.0031504417E+01
-1.0000161236E+01   -9.9690112244E+00   -9.9380526599E+00   -9.9072838558E+00
-9.8767031601E+00   -9.8463089538E+00   -9.8160996488E+00   -9.7860736856E+00
-9.7562295316E+00   -9.7265656789E+00   -9.6970806423E+00   -9.6677729574E+00
-9.6386411790E+00   -9.6096838785E+00   -9.5808996431E+00   -9.5522870735E+00
-9.5238447826E+00   -9.4955713939E+00   -9.4674655403E+00   -9.4395258630E+00
-9.4117510104E+00   -9.3841396367E+00   -9.3566904017E+00   -9.3294019702E+00
-9.3022730109E+00   -9.2753021965E+00   -9.2484882033E+00   -9.2218297109E+00
-9.1953254027E+00   -9.1689739657E+00   -9.1427740906E+00   -9.1167244726E+00
-9.0908238113E+00   -9.0650708117E+00   -9.0394641846E+00   -9.0140026472E+00
-8.9886849239E+00   -8.9635097470E+00   -8.9384758575E+00   -8.9135820062E+00
-8.8888269537E+00   -8.8642094719E+00   -8.8397283449E+00   -8.8153823691E+00
-8.7911703544E+00   -8.7670911245E+00   -8.7431435181E+00   -8.7193263889E+00
-8.6956386066E+00   -8.6720790565E+00   -8.6486466410E+00   -8.6253402791E+00
-8.6021589068E+00   -8.5791014775E+00   -8.5561669619E+00   -8.5333543464E+00
-8.5106626352E+00   -8.4880908494E+00   -8.4656380261E+00   -8.4433032205E+00
-8.4210855053E+00   -8.3989839674E+00   -8.3769977082E+00   -8.3551258252E+00
-8.3333674711E+00   -8.3117217905E+00   -8.2901879353E+00   -8.2687651121E+00
-8.2474524790E+00   -8.2262490962E+00   -8.2051541093E+00   -8.1841666971E+00
-8.1632858622E+00   -8.1425111166E+00   -8.1218419309E+00   -8.1012777238E+00
-8.0808179301E+00   -8.0604621748E+00   -8.0402092884E+00   -8.0200583708E+00
-8.0000084939E+00   -7.9800586336E+00   -7.9602078339E+00   -7.9404554894E+00
-7.9208008605E+00   -7.9012432372E+00   -7.8817819804E+00   -7.8624163910E+00
-7.8431457274E+00   -7.8239692956E+00   -7.8048864074E+00   -7.7858963760E+00
-7.7669985279E+00   -7.7481921957E+00   -7.7294767163E+00   -7.7108514323E+00
-7.6923156900E+00   -7.6738688464E+00   -7.6555102642E+00   -7.6372393117E+00
-7.6190553630E+00   -7.6009577984E+00   -7.5829460037E+00   -7.5650193706E+00
-7.5471772967E+00   -7.5294191851E+00   -7.5117444445E+00   -7.4941524893E+00
-7.4766427392E+00   -7.4592146194E+00   -7.4418675604E+00   -7.4246009980E+00
-7.4074143733E+00   -7.3903071324E+00   -7.3732787266E+00   -7.3563286123E+00
-7.3394562508E+00   -7.3226611084E+00   -7.3059426561E+00   -7.2893003699E+00
-7.2727337306E+00   -7.2562422234E+00   -7.2398253386E+00   -7.2234825708E+00
-7.2072134191E+00   -7.1910173874E+00   -7.1748939838E+00   -7.1588427209E+00
-7.1428631156E+00   -7.1269546891E+00   -7.1111169670E+00   -7.0953494789E+00
-7.0796517586E+00   -7.0640233442E+00   -7.0484637777E+00   -7.0329726052E+00
-7.0175493766E+00   -7.0021936461E+00   -6.9869049714E+00   -6.9716829143E+00
-6.9565270403E+00   -6.9414369189E+00   -6.9264121229E+00   -6.9114522291E+00
-6.8965568180E+00   -6.8817254734E+00   -6.8669577831E+00   -6.8522533379E+00
-6.8376117326E+00   -6.8230325652E+00   -6.8085154371E+00   -6.7940599532E+00
-6.7796657216E+00   -6.7653323540E+00   -6.7510594650E+00   -6.7368466728E+00
-6.7226935985E+00   -6.7085998666E+00   -6.6945651046E+00   -6.6805889432E+00
-6.6666710162E+00   -6.6528109603E+00   -6.6390084153E+00   -6.6252630241E+00
-6.6115744324E+00   -6.5979422888E+00   -6.5843662449E+00   -6.5708459552E+00
-6.5573810768E+00   -6.5439712698E+00   -6.5306161971E+00   -6.5173155242E+00
-6.5040689194E+00   -6.4908760537E+00   -6.4777366008E+00   -6.4646502369E+00
-6.4516166409E+00   -6.4386354944E+00   -6.4257064813E+00   -6.4128292882E+00
-6.4000036043E+00   -6.3872291210E+00   -6.3745055324E+00   -6.3618325349E+00
-6.3492098275E+00   -6.3366371113E+00   -6.3241140899E+00   -6.3116404694E+00
-6.2992159579E+00   -6.2868402660E+00   -6.2745131066E+00   -6.2622341947E+00
-6.2500032476E+00   -6.2378199848E+00   -6.2256841280E+00   -6.2135954011E+00
-6.2015535300E+00   -6.1895582428E+00   -6.1776092698E+00   -6.1657063432E+00
-6.1538491975E+00   -6.1420375689E+00   -6.1302711958E+00   -6.1185498188E+00
-6.1068731801E+00   -6.0952410241E+00   -6.0836530971E+00   -6.0721091474E+00
-6.0606089250E+00   -6.0491521820E+00   -6.0377386723E+00   -6.0263681516E+00
-6.0150403775E+00   -6.0037551093E+00   -5.9925121083E+00   -5.9813111375E+00
-5.9701519616E+00   -5.9590343472E+00   -5.9479580624E+00   -5.9369228773E+00
-5.9259285634E+00   -5.9149748942E+00   -5.9040616447E+00   -5.8931885916E+00
-5.8823555131E+00   -5.8715621893E+00   -5.8608084017E+00   -5.8500939335E+00
-5.8394185694E+00   -5.8287820957E+00   -5.8181843004E+00   -5.8076249727E+00
-5.7971039037E+00   -5.7866208858E+00   -5.7761757129E+00   -5.7657681805E+00
-5.7553980854E+00   -5.7450652261E+00   -5.7347694023E+00   -5.7245104152E+00
-5.7142880676E+00   -5.7041021635E+00   -5.6939525083E+00   -5.6838389089E+00
-5.6737611735E+00   -5.6637191117E+00   -5.6537125344E+00   -5.6437412538E+00
-5.6338050835E+00   -5.6239038384E+00   -5.6140373346E+00   -5.6042053897E+00
-5.5944078224E+00   -5.5846444526E+00   -5.5749151018E+00   -5.5652195922E+00
-5.5555577478E+00   -5.5459293935E+00   -5.5363343554E+00   -5.5267724609E+00
-5.5172435385E+00   -5.5077474181E+00   -5.4982839306E+00   -5.4888529079E+00
-5.4794541834E+00   -5.4700875914E+00   -5.4607529674E+00   -5.4514501480E+00
-5.4421789710E+00   -5.4329392751E+00   -5.4237309004E+00   -5.4145536878E+00
-5.4054074793E+00   -5.3962921182E+00   -5.3872074487E+00   -5.3781533159E+00
-5.3691295662E+00   -5.3601360469E+00   -5.3511726064E+00   -5.3422390939E+00
</PP_LOCAL>
<PP_NONLOCAL>
<PP_BETA.1
type="real"
size="600"
columns="4"
index="1"
angular_momentum="0"
cutoff_radius_index=" 224"
cutoff_radius="    2.2300000000E+00" >
3.0552782526E-12    8.8677437298E-03    1.7769376419E-02    2.6738659350E-02
3.5809098813E-02    4.5013819514E-02    5.4385439058E-02    6.3955943874E-02
7.3756566929E-02    8.3817667581E-02    9.4168613915E-02    1.0483766791E-01
1.1585187377E-01    1.2723694971E-01    1.3901718359E-01    1.5121533262E-01
1.6385252754E-01    1.7694818144E-01    1.9051990362E-01    2.0458341869E-01
2.1915249120E-01    2.3423885599E-01    2.4985215462E-01    2.6599987788E-01
2.8268731485E-01    2.9991750845E-01    3.1769121782E-01    3.3600688755E-01
3.5486062406E-01    3.7424617903E-01    3.9415494021E-01    4.1457592947E-01
4.3549580836E-01    4.5689889096E-01    4.7876716435E-01    5.0108031641E-01
5.2381577110E-01    5.4694873109E-01    5.7045222770E-01    5.9429717810E-01
6.1845244949E-01    6.4288493041E-01    6.6755960872E-01    6.9243965622E-01
7.1748651979E-01    7.4266001859E-01    7.6791844727E-01    7.9321868493E-01
8.1851630931E-01    8.4376571622E-01    8.6892024365E-01    8.9393230034E-01
9.1875349831E-01    9.4333478920E-01    9.6762660374E-01    9.9157899420E-01
1.0151417792E+00    1.0382646906E+00    1.0608975219E+00    1.0829902775E+00
1.1044933233E+00    1.1253575366E+00    1.1455344562E+00    1.1649764315E+00
1.1836367704E+00    1.2014698856E+00    1.2184314380E+00    1.2344784782E+00
1.2495695843E+00    1.2636649958E+00    1.2767267442E+00    1.2887187778E+00
1.2996070826E+00    1.3093597970E+00    1.3179473208E+00    1.3253424183E+00
1.3315203137E+00    1.3364587810E+00    1.3401382252E+00    1.3425417562E+00
1.3436552556E+00    1.3434674339E+00    1.3419698802E+00    1.3391571030E+00
1.3350265620E+00    1.3295786907E+00    1.3228169111E+00    1.3147476372E+00
1.3053802710E+00    1.2947271886E+00    1.2828037165E+00    1.2696280996E+00
1.2552214595E+00    1.2396077439E+00    1.2228136671E+00    1.2048686418E+00
1.1858047022E+00    1.1656564195E+00    1.1444608087E+00    1.1222572276E+00
1.0990872694E+00    1.0749946474E+00    1.0500250735E+00    1.0242261302E+00
9.9764713741E-01    9.7033901321E-01    9.4235413035E-01    9.1374616816E-01
8.8456996073E-01    8.5488134172E-01    8.2473698646E-01    7.9419425187E-01
7.6331101467E-01    7.3214550854E-01    7.0075616080E-01    6.6920142904E-01
6.3753963854E-01    6.0582882069E-01    5.7412655331E-01    5.4248980320E-01
5.1097477155E-01    4.7963674273E-01    4.4852993696E-01    4.1770736741E-01
3.8722070211E-01    3.5712013123E-01    3.2745424017E-01    2.9826988878E-01
2.6961209715E-01    2.4152393842E-01    2.1404643880E-01    1.8721848514E-01
1.6107674045E-01    1.3565556741E-01    1.1098696024E-01    8.7100485019E-02
6.4023228623E-02    4.1779756379E-02    2.0392078528E-02   -1.2037452203E-04
-1.9740768073E-02   -3.8454870246E-02   -5.6251050360E-02   -7.3120268658E-02
-8.9056057585E-02   -1.0405449469E-01   -1.1811416741E-01   -1.3123612998E-01
-1.4342385266E-01   -1.5468316358E-01   -1.6502218356E-01   -1.7445125418E-01
-1.8298285949E-01   -1.9063154172E-01   -1.9741381135E-01   -2.0334805203E-01
-2.0845442071E-01   -2.1275474343E-01   -2.1627240724E-01   -2.1903224871E-01
-2.2106043938E-01   -2.2238436887E-01   -2.2303252581E-01   -2.2303437728E-01
-2.2242024716E-01   -2.2122119379E-01   -2.1946888752E-01   -2.1719548848E-01
-2.1443352501E-01   -2.1121577333E-01   -2.0757513864E-01   -2.0354453815E-01
-1.9915678646E-01   -1.9444448361E-01   -1.8943990600E-01   -1.8417490080E-01
-1.7868078379E-01   -1.7298824125E-01   -1.6712723576E-01   -1.6112691660E-01
-1.5501553439E-01   -1.4882036075E-01   -1.4256761251E-01   -1.3628238118E-01
-1.2998856721E-01   -1.2370881896E-01   -1.1746447967E-01   -1.1127553296E-01
-1.0516056066E-01   -9.9136722207E-02   -9.3219691737E-02   -8.7423554297E-02
-8.1760976804E-02   -7.6243279710E-02   -7.0880559487E-02   -6.5681869640E-02
-6.0655324389E-02   -5.5808087396E-02   -5.1146391867E-02   -4.6675625387E-02
-4.2400363997E-02   -3.8324425169E-02   -3.4450918899E-02   -3.0782298317E-02
-2.7320410449E-02   -2.4066546737E-02   -2.1021492423E-02   -1.8185575096E-02