<UPF version="2.0.1">
<PP_INFO>
NOTE!!!!
This file is trimmed with a mesh size of 600 from the original version.
Trimming performed at 2023-03-31 09:10:05.049662 by trim_upf.py version 0.1.0

This pseudopotential file has been produced using the code
ONCVPSP  (Optimized Norm-Conservinng Vanderbilt PSeudopotential)
scalar-relativistic version 3.3.0 08/16/2017 by D. R. Hamann
The code is available through a link at URL www.mat-simresearch.com.
Documentation with the package provides a full discription of the
input data below.
While it is not required under the terms of the GNU GPL, it is
suggested that you cite D. R. Hamann, Phys. Rev. B 88, 085117 (2013)
in any publication using these pseudopotentials.
<PP_INPUTFILE>
# ATOM AND REFERENCE CONFIGURATION
# atsym  z   nc   nv     iexc    psfile
Pt 78.00   10    4       4      upf
#
#   n    l    f        energy (Ha)
1    0    2.00
2    0    2.00
2    1    6.00
3    0    2.00
3    1    6.00
3    2   10.00
4    0    2.00
4    1    6.00
4    2   10.00
4    3   14.00
5    0    2.00
5    1    6.00
5    2    9.00
6    0    1.00
#
# PSEUDOPOTENTIAL AND OPTIMIZATION
# lmax
3
#
#   l,   rc,      ep,       ncon, nbas, qcut
0   1.45000  -3.74179    4    7   8.80000
1   1.45000  -2.05865    4    7   9.00000
2   1.45000  -0.22569    4    7   8.80000
3   1.90000   0.10000    4    8   6.80000
#
# LOCAL POTENTIAL
# lloc, lpopt,  rc(5),   dvloc0
4    3   1.30000      0.00000
#
# VANDERBILT-KLEINMAN-BYLANDER PROJECTORs
# l, nproj, debl
0    2   3.53382
1    2   2.50000
2    2   1.00000
3    2   3.00000
#
# MODEL CORE CHARGE
# icmod, fcfact, rcfact
3   5.00000   1.37000
#
# LOG DERIVATIVE ANALYSIS
# epsh1, epsh2, depsh
-14.00   12.00    0.02
#
# OUTPUT GRID
# rlmax, drl
5.00    0.01
#
# TEST CONFIGURATIONS
# ncnf
0
# nvcnf
#   n    l    f
</PP_INPUTFILE>
</PP_INFO>
<!--                               -->
<!-- END OF HUMAN READABLE SECTION -->
<!--                               -->
<PP_HEADER
generated="Generated using ONCVPSP code by D. R. Hamann"
author="anonymous"
date="171031"
comment=""
element="Pt"
pseudo_type="NC"
relativistic="scalar"
is_ultrasoft="F"
is_paw="F"
is_coulomb="F"
has_so="F"
has_wfc="F"
has_gipaw="F"
core_correction="T"
functional="PBE"
z_valence="   18.00"
total_psenergy="  -2.41893811152E+02"
rho_cutoff="   1.37300000000E+01"
l_max="3"
l_local="-1"
mesh_size="   600"
number_of_wfc="4"
number_of_proj="8"/>
<PP_MESH>
<PP_R type="real"  size="600" columns="8">
0.0000    0.0100    0.0200    0.0300    0.0400    0.0500    0.0600    0.0700
0.0800    0.0900    0.1000    0.1100    0.1200    0.1300    0.1400    0.1500
0.1600    0.1700    0.1800    0.1900    0.2000    0.2100    0.2200    0.2300
0.2400    0.2500    0.2600    0.2700    0.2800    0.2900    0.3000    0.3100
0.3200    0.3300    0.3400    0.3500    0.3600    0.3700    0.3800    0.3900
0.4000    0.4100    0.4200    0.4300    0.4400    0.4500    0.4600    0.4700
0.4800    0.4900    0.5000    0.5100    0.5200    0.5300    0.5400    0.5500
0.5600    0.5700    0.5800    0.5900    0.6000    0.6100    0.6200    0.6300
0.6400    0.6500    0.6600    0.6700    0.6800    0.6900    0.7000    0.7100
0.7200    0.7300    0.7400    0.7500    0.7600    0.7700    0.7800    0.7900
0.8000    0.8100    0.8200    0.8300    0.8400    0.8500    0.8600    0.8700
0.8800    0.8900    0.9000    0.9100    0.9200    0.9300    0.9400    0.9500
0.9600    0.9700    0.9800    0.9900    1.0000    1.0100    1.0200    1.0300
1.0400    1.0500    1.0600    1.0700    1.0800    1.0900    1.1000    1.1100
1.1200    1.1300    1.1400    1.1500    1.1600    1.1700    1.1800    1.1900
1.2000    1.2100    1.2200    1.2300    1.2400    1.2500    1.2600    1.2700
1.2800    1.2900    1.3000    1.3100    1.3200    1.3300    1.3400    1.3500
1.3600    1.3700    1.3800    1.3900    1.4000    1.4100    1.4200    1.4300
1.4400    1.4500    1.4600    1.4700    1.4800    1.4900    1.5000    1.5100
1.5200    1.5300    1.5400    1.5500    1.5600    1.5700    1.5800    1.5900
1.6000    1.6100    1.6200    1.6300    1.6400    1.6500    1.6600    1.6700
1.6800    1.6900    1.7000    1.7100    1.7200    1.7300    1.7400    1.7500
1.7600    1.7700    1.7800    1.7900    1.8000    1.8100    1.8200    1.8300
1.8400    1.8500    1.8600    1.8700    1.8800    1.8900    1.9000    1.9100
1.9200    1.9300    1.9400    1.9500    1.9600    1.9700    1.9800    1.9900
2.0000    2.0100    2.0200    2.0300    2.0400    2.0500    2.0600    2.0700
2.0800    2.0900    2.1000    2.1100    2.1200    2.1300    2.1400    2.1500
2.1600    2.1700    2.1800    2.1900    2.2000    2.2100    2.2200    2.2300
2.2400    2.2500    2.2600    2.2700    2.2800    2.2900    2.3000    2.3100
2.3200    2.3300    2.3400    2.3500    2.3600    2.3700    2.3800    2.3900
2.4000    2.4100    2.4200    2.4300    2.4400    2.4500    2.4600    2.4700
2.4800    2.4900    2.5000    2.5100    2.5200    2.5300    2.5400    2.5500
2.5600    2.5700    2.5800    2.5900    2.6000    2.6100    2.6200    2.6300
2.6400    2.6500    2.6600    2.6700    2.6800    2.6900    2.7000    2.7100
2.7200    2.7300    2.7400    2.7500    2.7600    2.7700    2.7800    2.7900
2.8000    2.8100    2.8200    2.8300    2.8400    2.8500    2.8600    2.8700
2.8800    2.8900    2.9000    2.9100    2.9200    2.9300    2.9400    2.9500
2.9600    2.9700    2.9800    2.9900    3.0000    3.0100    3.0200    3.0300
3.0400    3.0500    3.0600    3.0700    3.0800    3.0900    3.1000    3.1100
3.1200    3.1300    3.1400    3.1500    3.1600    3.1700    3.1800    3.1900
3.2000    3.2100    3.2200    3.2300    3.2400    3.2500    3.2600    3.2700
3.2800    3.2900    3.3000    3.3100    3.3200    3.3300    3.3400    3.3500
3.3600    3.3700    3.3800    3.3900    3.4000    3.4100    3.4200    3.4300
3.4400    3.4500    3.4600    3.4700    3.4800    3.4900    3.5000    3.5100
3.5200    3.5300    3.5400    3.5500    3.5600    3.5700    3.5800    3.5900
3.6000    3.6100    3.6200    3.6300    3.6400    3.6500    3.6600    3.6700
3.6800    3.6900    3.7000    3.7100    3.7200    3.7300    3.7400    3.7500
3.7600    3.7700    3.7800    3.7900    3.8000    3.8100    3.8200    3.8300
3.8400    3.8500    3.8600    3.8700    3.8800    3.8900    3.9000    3.9100
3.9200    3.9300    3.9400    3.9500    3.9600    3.9700    3.9800    3.9900
4.0000    4.0100    4.0200    4.0300    4.0400    4.0500    4.0600    4.0700
4.0800    4.0900    4.1000    4.1100    4.1200    4.1300    4.1400    4.1500
4.1600    4.1700    4.1800    4.1900    4.2000    4.2100    4.2200    4.2300
4.2400    4.2500    4.2600    4.2700    4.2800    4.2900    4.3000    4.3100
4.3200    4.3300    4.3400    4.3500    4.3600    4.3700    4.3800    4.3900
4.4000    4.4100    4.4200    4.4300    4.4400    4.4500    4.4600    4.4700
4.4800    4.4900    4.5000    4.5100    4.5200    4.5300    4.5400    4.5500
4.5600    4.5700    4.5800    4.5900    4.6000    4.6100    4.6200    4.6300
4.6400    4.6500    4.6600    4.6700    4.6800    4.6900    4.7000    4.7100
4.7200    4.7300    4.7400    4.7500    4.7600    4.7700    4.7800    4.7900
4.8000    4.8100    4.8200    4.8300    4.8400    4.8500    4.8600    4.8700
4.8800    4.8900    4.9000    4.9100    4.9200    4.9300    4.9400    4.9500
4.9600    4.9700    4.9800    4.9900    5.0000    5.0100    5.0200    5.0300
5.0400    5.0500    5.0600    5.0700    5.0800    5.0900    5.1000    5.1100
5.1200    5.1300    5.1400    5.1500    5.1600    5.1700    5.1800    5.1900
5.2000    5.2100    5.2200    5.2300    5.2400    5.2500    5.2600    5.2700
5.2800    5.2900    5.3000    5.3100    5.3200    5.3300    5.3400    5.3500
5.3600    5.3700    5.3800    5.3900    5.4000    5.4100    5.4200    5.4300
5.4400    5.4500    5.4600    5.4700    5.4800    5.4900    5.5000    5.5100
5.5200    5.5300    5.5400    5.5500    5.5600    5.5700    5.5800    5.5900
5.6000    5.6100    5.6200    5.6300    5.6400    5.6500    5.6600    5.6700
5.6800    5.6900    5.7000    5.7100    5.7200    5.7300    5.7400    5.7500
5.7600    5.7700    5.7800    5.7900    5.8000    5.8100    5.8200    5.8300
5.8400    5.8500    5.8600    5.8700    5.8800    5.8900    5.9000    5.9100
5.9200    5.9300    5.9400    5.9500    5.9600    5.9700    5.9800    5.9900
</PP_R>
<PP_RAB type="real"  size="600" columns="8">
0.0100    0.0100    0.0100    0.0100    0.0100    0.0100    0.0100    0.0100
0.0100    0.0100    0.0100    0.0100    0.0100    0.0100    0.0100    0.0100
0.0100    0.0100    0.0100    0.0100    0.0100    0.0100    0.0100    0.0100
0.0100    0.0100    0.0100    0.0100    0.0100    0.0100    0.0100    0.0100
0.0100    0.0100    0.0100    0.0100    0.0100    0.0100    0.0100    0.0100
0.0100    0.0100    0.0100    0.0100    0.0100    0.0100    0.0100    0.0100
0.0100    0.0100    0.0100    0.0100    0.0100    0.0100    0.0100    0.0100
0.0100    0.0100    0.0100    0.0100    0.0100    0.0100    0.0100    0.0100
0.0100    0.0100    0.0100    0.0100    0.0100    0.0100    0.0100    0.0100
0.0100    0.0100    0.0100    0.0100    0.0100    0.0100    0.0100    0.0100
0.0100    0.0100    0.0100    0.0100    0.0100    0.0100    0.0100    0.0100
0.0100    0.0100    0.0100    0.0100    0.0100    0.0100    0.0100    0.0100
0.0100    0.0100    0.0100    0.0100    0.0100    0.0100    0.0100    0.0100
0.0100    0.0100    0.0100    0.0100    0.0100    0.0100    0.0100    0.0100
0.0100    0.0100    0.0100    0.0100    0.0100    0.0100    0.0100    0.0100
0.0100    0.0100    0.0100    0.0100    0.0100    0.0100    0.0100    0.0100
0.0100    0.0100    0.0100    0.0100    0.0100    0.0100    0.0100    0.0100
0.0100    0.0100    0.0100    0.0100    0.0100    0.0100    0.0100    0.0100
0.0100    0.0100    0.0100    0.0100    0.0100    0.0100    0.0100    0.0100
0.0100    0.0100    0.0100    0.0100    0.0100    0.0100    0.0100    0.0100
0.0100    0.0100    0.0100    0.0100    0.0100    0.0100    0.0100    0.0100
0.0100    0.0100    0.0100    0.0100    0.0100    0.0100    0.0100    0.0100
0.0100    0.0100    0.0100    0.0100    0.0100    0.0100    0.0100    0.0100
0.0100    0.0100    0.0100    0.0100    0.0100    0.0100    0.0100    0.0100
0.0100    0.0100    0.0100    0.0100    0.0100    0.0100    0.0100    0.0100
0.0100    0.0100    0.0100    0.0100    0.0100    0.0100    0.0100    0.0100
0.0100    0.0100    0.0100    0.0100    0.0100    0.0100    0.0100    0.0100
0.0100    0.0100    0.0100    0.0100    0.0100    0.0100    0.0100    0.0100
0.0100    0.0100    0.0100    0.0100    0.0100    0.0100    0.0100    0.0100
0.0100    0.0100    0.0100    0.0100    0.0100    0.0100    0.0100    0.0100
0.0100    0.0100    0.0100    0.0100    0.0100    0.0100    0.0100    0.0100
0.0100    0.0100    0.0100    0.0100    0.0100    0.0100    0.0100    0.0100
0.0100    0.0100    0.0100    0.0100    0.0100    0.0100    0.0100    0.0100
0.0100    0.0100    0.0100    0.0100    0.0100    0.0100    0.0100    0.0100
0.0100    0.0100    0.0100    0.0100    0.0100    0.0100    0.0100    0.0100
0.0100    0.0100    0.0100    0.0100    0.0100    0.0100    0.0100    0.0100
0.0100    0.0100    0.0100    0.0100    0.0100    0.0100    0.0100    0.0100
0.0100    0.0100    0.0100    0.0100    0.0100    0.0100    0.0100    0.0100
0.0100    0.0100    0.0100    0.0100    0.0100    0.0100    0.0100    0.0100
0.0100    0.0100    0.0100    0.0100    0.0100    0.0100    0.0100    0.0100
0.0100    0.0100    0.0100    0.0100    0.0100    0.0100    0.0100    0.0100
0.0100    0.0100    0.0100    0.0100    0.0100    0.0100    0.0100    0.0100
0.0100    0.0100    0.0100    0.0100    0.0100    0.0100    0.0100    0.0100
0.0100    0.0100    0.0100    0.0100    0.0100    0.0100    0.0100    0.0100
0.0100    0.0100    0.0100    0.0100    0.0100    0.0100    0.0100    0.0100
0.0100    0.0100    0.0100    0.0100    0.0100    0.0100    0.0100    0.0100
0.0100    0.0100    0.0100    0.0100    0.0100    0.0100    0.0100    0.0100
0.0100    0.0100    0.0100    0.0100    0.0100    0.0100    0.0100    0.0100
0.0100    0.0100    0.0100    0.0100    0.0100    0.0100    0.0100    0.0100
0.0100    0.0100    0.0100    0.0100    0.0100    0.0100    0.0100    0.0100
0.0100    0.0100    0.0100    0.0100    0.0100    0.0100    0.0100    0.0100
0.0100    0.0100    0.0100    0.0100    0.0100    0.0100    0.0100    0.0100
0.0100    0.0100    0.0100    0.0100    0.0100    0.0100    0.0100    0.0100
0.0100    0.0100    0.0100    0.0100    0.0100    0.0100    0.0100    0.0100
0.0100    0.0100    0.0100    0.0100    0.0100    0.0100    0.0100    0.0100
0.0100    0.0100    0.0100    0.0100    0.0100    0.0100    0.0100    0.0100
0.0100    0.0100    0.0100    0.0100    0.0100    0.0100    0.0100    0.0100
0.0100    0.0100    0.0100    0.0100    0.0100    0.0100    0.0100    0.0100
0.0100    0.0100    0.0100    0.0100    0.0100    0.0100    0.0100    0.0100
0.0100    0.0100    0.0100    0.0100    0.0100    0.0100    0.0100    0.0100
0.0100    0.0100    0.0100    0.0100    0.0100    0.0100    0.0100    0.0100
0.0100    0.0100    0.0100    0.0100    0.0100    0.0100    0.0100    0.0100
0.0100    0.0100    0.0100    0.0100    0.0100    0.0100    0.0100    0.0100
0.0100    0.0100    0.0100    0.0100    0.0100    0.0100    0.0100    0.0100
0.0100    0.0100    0.0100    0.0100    0.0100    0.0100    0.0100    0.0100
0.0100    0.0100    0.0100    0.0100    0.0100    0.0100    0.0100    0.0100
0.0100    0.0100    0.0100    0.0100    0.0100    0.0100    0.0100    0.0100
0.0100    0.0100    0.0100    0.0100    0.0100    0.0100    0.0100    0.0100
0.0100    0.0100    0.0100    0.0100    0.0100    0.0100    0.0100    0.0100
0.0100    0.0100    0.0100    0.0100    0.0100    0.0100    0.0100    0.0100
0.0100    0.0100    0.0100    0.0100    0.0100    0.0100    0.0100    0.0100
0.0100    0.0100    0.0100    0.0100    0.0100    0.0100    0.0100    0.0100
0.0100    0.0100    0.0100    0.0100    0.0100    0.0100    0.0100    0.0100
0.0100    0.0100    0.0100    0.0100    0.0100    0.0100    0.0100    0.0100
0.0100    0.0100    0.0100    0.0100    0.0100    0.0100    0.0100    0.0100
</PP_RAB>
</PP_MESH>
<PP_LOCAL type="real"  size="600" columns="4">
-4.7642523887E+01   -4.7642745101E+01   -4.7643403103E+01   -4.7644481415E+01
-4.7645953159E+01   -4.7647781564E+01   -4.7649920450E+01   -4.7652314701E+01
-4.7654900725E+01   -4.7657606893E+01   -4.7660353980E+01   -4.7663055584E+01
-4.7665618537E+01   -4.7667943312E+01   -4.7669924418E+01   -4.7671450785E+01
-4.7672406146E+01   -4.7672669418E+01   -4.7672115070E+01   -4.7670613490E+01
-4.7668031356E+01   -4.7664231996E+01   -4.7659075753E+01   -4.7652420346E+01
-4.7644121233E+01   -4.7634031972E+01   -4.7622004588E+01   -4.7607889930E+01
-4.7591538042E+01   -4.7572798527E+01   -4.7551520909E+01   -4.7527555008E+01
-4.7500751298E+01   -4.7470961279E+01   -4.7438037842E+01   -4.7401835630E+01
-4.7362211405E+01   -4.7319024401E+01   -4.7272136683E+01   -4.7221413496E+01
-4.7166723611E+01   -4.7107939662E+01   -4.7044938477E+01   -4.6977601405E+01
-4.6905814622E+01   -4.6829469442E+01   -4.6748462610E+01   -4.6662696578E+01
-4.6572079784E+01   -4.6476526901E+01   -4.6375959087E+01   -4.6270304216E+01
-4.6159497092E+01   -4.6043479652E+01   -4.5922201160E+01   -4.5795618374E+01
-4.5663695707E+01   -4.5526405375E+01   -4.5383727517E+01   -4.5235650318E+01
-4.5082170098E+01   -4.4923291399E+01   -4.4759027047E+01   -4.4589398204E+01
-4.4414434400E+01   -4.4234173546E+01   -4.4048661937E+01   -4.3857954228E+01
-4.3662113397E+01   -4.3461210693E+01   -4.3255325554E+01   -4.3044545518E+01
-4.2828966107E+01   -4.2608690693E+01   -4.2383830345E+01   -4.2154503654E+01
-4.1920836541E+01   -4.1682962043E+01   -4.1441020081E+01   -4.1195157207E+01
-4.0945526336E+01   -4.0692286461E+01   -4.0435602341E+01   -4.0175644193E+01
-3.9912587346E+01   -3.9646611903E+01   -3.9377902370E+01   -3.9106647295E+01
-3.8833038876E+01   -3.8557272572E+01   -3.8279546707E+01   -3.8000062056E+01
-3.7719021438E+01   -3.7436629291E+01   -3.7153091254E+01   -3.6868613737E+01
-3.6583403488E+01   -3.6297667167E+01   -3.6011610902E+01   -3.5725439858E+01
-3.5439357795E+01   -3.5153566627E+01   -3.4868265983E+01   -3.4583652766E+01
-3.4299920706E+01   -3.4017259918E+01   -3.3735856458E+01   -3.3455891879E+01
-3.3177542784E+01   -3.2900980377E+01   -3.2626370019E+01   -3.2353870777E+01
-3.2083634973E+01   -3.1815807735E+01   -3.1550526537E+01   -3.1287920748E+01
-3.1028111166E+01   -3.0771209562E+01   -3.0517318205E+01   -3.0266529391E+01
-3.0018924968E+01   -2.9774575847E+01   -2.9533541512E+01   -2.9295869521E+01
-2.9061594998E+01   -2.8830740112E+01   -2.8603313557E+01   -2.8379309999E+01
-2.8158709556E+01   -2.7941477222E+01   -2.7727562682E+01   -2.7516897837E+01
-2.7309401157E+01   -2.7104985030E+01   -2.6903563307E+01   -2.6705054377E+01
-2.6509379094E+01   -2.6316461404E+01   -2.6126228104E+01   -2.5938608793E+01
-2.5753535817E+01   -2.5570944471E+01   -2.5390772282E+01   -2.5212959485E+01
-2.5037447716E+01   -2.4864186679E+01   -2.4693141085E+01   -2.4524294852E+01
-2.4357650972E+01   -2.4193188621E+01   -2.4030860080E+01   -2.3870624920E+01
-2.3712448027E+01   -2.3556296161E+01   -2.3402137836E+01   -2.3249940593E+01
-2.3099672911E+01   -2.2951304589E+01   -2.2804806037E+01   -2.2660148214E+01
-2.2517302664E+01   -2.2376241441E+01   -2.2236937050E+01   -2.2099362393E+01
-2.1963490728E+01   -2.1829295631E+01   -2.1696750958E+01   -2.1565830820E+01
-2.1436509561E+01   -2.1308761732E+01   -2.1182562083E+01   -2.1057885551E+01
-2.0934707254E+01   -2.0813002486E+01   -2.0692746724E+01   -2.0573915624E+01
-2.0456485034E+01   -2.0340431001E+01   -2.0225729780E+01   -2.0112357850E+01
-2.0000291926E+01   -1.9889508973E+01   -1.9779986225E+01   -1.9671701199E+01
-1.9564631709E+01   -1.9458755888E+01   -1.9354052201E+01   -1.9250499458E+01
-1.9148076833E+01   -1.9046763874E+01   -1.8946540521E+01   -1.8847387111E+01
-1.8749284395E+01   -1.8652213543E+01   -1.8556156152E+01   -1.8461094257E+01
-1.8367010331E+01   -1.8273887289E+01   -1.8181708495E+01   -1.8090457757E+01
-1.8000119328E+01   -1.7910677909E+01   -1.7822118637E+01   -1.7734427086E+01
-1.7647589261E+01   -1.7561591590E+01   -1.7476420912E+01   -1.7392064476E+01
-1.7308509921E+01   -1.7225745272E+01   -1.7143758924E+01   -1.7062539632E+01
-1.6982076494E+01   -1.6902358937E+01   -1.6823376705E+01   -1.6745119841E+01
-1.6667578675E+01   -1.6590743802E+01   -1.6514606073E+01   -1.6439156575E+01
-1.6364386615E+01   -1.6290287708E+01   -1.6216851558E+01   -1.6144070044E+01
-1.6071935209E+01   -1.6000439241E+01   -1.5929574465E+01   -1.5859333325E+01
-1.5789708380E+01   -1.5720692286E+01   -1.5652277793E+01   -1.5584457729E+01
-1.5517225002E+01   -1.5450572582E+01   -1.5384493505E+01   -1.5318980863E+01
-1.5254027803E+01   -1.5189627521E+01   -1.5125773263E+01   -1.5062458325E+01
-1.4999676047E+01   -1.4937419821E+01   -1.4875683088E+01   -1.4814459338E+01
-1.4753742119E+01   -1.4693525031E+01   -1.4633801737E+01   -1.4574565962E+01
-1.4515811497E+01   -1.4457532206E+01   -1.4399722024E+01   -1.4342374967E+01
-1.4285485131E+01   -1.4229046697E+01   -1.4173053938E+01   -1.4117501216E+01
-1.4062382988E+01   -1.4007693810E+01   -1.3953428337E+01   -1.3899581324E+01
-1.3846147631E+01   -1.3793122219E+01   -1.3740500156E+01   -1.3688276611E+01
-1.3636446861E+01   -1.3585006282E+01   -1.3533950355E+01   -1.3483274660E+01
-1.3432974875E+01   -1.3383046775E+01   -1.3333486227E+01   -1.3284289192E+01
-1.3235451714E+01   -1.3186969924E+01   -1.3138840031E+01   -1.3091058322E+01
-1.3043621157E+01   -1.2996524965E+01   -1.2949766237E+01   -1.2903341528E+01
-1.2857247448E+01   -1.2811480662E+01   -1.2766037882E+01   -1.2720915867E+01
-1.2676111420E+01   -1.2631621380E+01   -1.2587442623E+01   -1.2543572062E+01
-1.2500006637E+01   -1.2456743318E+01   -1.2413779103E+01   -1.2371111015E+01
-1.2328736102E+01   -1.2286651433E+01   -1.2244854101E+01   -1.2203341222E+01
-1.2162109932E+01   -1.2121157389E+01   -1.2080480776E+01   -1.2040077294E+01
-1.1999944171E+01   -1.1960078659E+01   -1.1920478033E+01   -1.1881139595E+01
-1.1842060675E+01   -1.1803238630E+01   -1.1764670849E+01   -1.1726354748E+01
-1.1688287778E+01   -1.1650467420E+01   -1.1612891192E+01   -1.1575556644E+01
-1.1538461363E+01   -1.1501602970E+01   -1.1464979125E+01   -1.1428587525E+01
-1.1392425902E+01   -1.1356492027E+01   -1.1320783707E+01   -1.1285298783E+01
-1.1250035135E+01   -1.1214990670E+01   -1.1180163354E+01   -1.1145551182E+01
-1.1111152178E+01   -1.1076964382E+01   -1.1042985883E+01   -1.1009214778E+01
-1.0975649190E+01   -1.0942287360E+01   -1.0909127231E+01   -1.0876166921E+01
-1.0843404581E+01   -1.0810838266E+01   -1.0778466900E+01   -1.0746289145E+01
-1.0714303709E+01   -1.0682509455E+01   -1.0650904138E+01   -1.0619485830E+01
-1.0588252529E+01   -1.0557202052E+01   -1.0526333035E+01   -1.0495643890E+01
-1.0465133098E+01   -1.0434799291E+01   -1.0404640824E+01   -1.0374656186E+01
-1.0344843877E+01   -1.0315202398E+01   -1.0285730297E+01   -1.0256426127E+01
-1.0227288458E+01   -1.0198315871E+01   -1.0169506968E+01   -1.0140860366E+01
-1.0112374699E+01   -1.0084048614E+01   -1.0055880774E+01   -1.0027869856E+01
-1.0000014553E+01   -9.9723135719E+00   -9.9447656340E+00   -9.9173694744E+00
-9.8901238424E+00   -9.8630275008E+00   -9.8360792260E+00   -9.8092778078E+00
-9.7826220490E+00   -9.7561107655E+00   -9.7297427861E+00   -9.7035169518E+00
-9.6774321166E+00   -9.6514871463E+00   -9.6256809193E+00   -9.6000123256E+00
-9.5744802670E+00   -9.5490836573E+00   -9.5238214215E+00   -9.4986924959E+00
-9.4736958282E+00   -9.4488303770E+00   -9.4240951119E+00   -9.3994890132E+00
-9.3750110718E+00   -9.3506602891E+00   -9.3264356769E+00   -9.3023362571E+00
-9.2783610619E+00   -9.2545091331E+00   -9.2307795227E+00   -9.2071712922E+00
-9.1836835126E+00   -9.1603152645E+00   -9.1370656377E+00   -9.1139337315E+00
-9.0909186540E+00   -9.0680195223E+00   -9.0452354625E+00   -9.0225656095E+00
-9.0000091066E+00   -8.9775651059E+00   -8.9552327679E+00   -8.9330112613E+00
-8.9108997631E+00   -8.8888974585E+00   -8.8670035405E+00   -8.8452172104E+00
-8.8235376769E+00   -8.8019641568E+00   -8.7804958744E+00   -8.7591320614E+00
-8.7378719572E+00   -8.7167148085E+00   -8.6956598693E+00   -8.6747064005E+00
-8.6538536705E+00   -8.6331009546E+00   -8.6124475349E+00   -8.5918927005E+00
-8.5714357471E+00   -8.5510759774E+00   -8.5308127004E+00   -8.5106452317E+00
-8.4905728934E+00   -8.4705950142E+00   -8.4507109286E+00   -8.4309199778E+00
-8.4112215089E+00   -8.3916148753E+00   -8.3720994361E+00   -8.3526745566E+00
-8.3333396079E+00   -8.3140939669E+00   -8.2949370163E+00   -8.2758681444E+00
-8.2568867451E+00   -8.2379922180E+00   -8.2191839680E+00   -8.2004614055E+00
-8.1818239462E+00   -8.1632710113E+00   -8.1448020270E+00   -8.1264164248E+00
-8.1081136412E+00   -8.0898931181E+00   -8.0717543019E+00   -8.0536966443E+00
-8.0357196019E+00   -8.0178226360E+00   -8.0000052128E+00   -7.9822668031E+00
-7.9646068824E+00   -7.9470249311E+00   -7.9295204338E+00   -7.9120928799E+00
-7.8947417631E+00   -7.8774665817E+00   -7.8602668383E+00   -7.8431420397E+00
-7.8260916972E+00   -7.8091153263E+00   -7.7922124466E+00   -7.7753825819E+00
-7.7586252601E+00   -7.7419400133E+00   -7.7253263773E+00   -7.7087838922E+00
-7.6923121018E+00   -7.6759105540E+00   -7.6595788003E+00   -7.6433163963E+00
-7.6271229010E+00   -7.6109978775E+00   -7.5949408924E+00   -7.5789515159E+00
-7.5630293220E+00   -7.5471738881E+00   -7.5313847951E+00   -7.5156616277E+00
-7.5000039737E+00   -7.4844114245E+00   -7.4688835749E+00   -7.4534200231E+00
-7.4380203704E+00   -7.4226842217E+00   -7.4074111849E+00   -7.3922008712E+00
-7.3770528951E+00   -7.3619668741E+00   -7.3469424288E+00   -7.3319791831E+00
-7.3170767637E+00   -7.3022348005E+00   -7.2874529264E+00   -7.2727307771E+00
-7.2580679915E+00   -7.2434642112E+00   -7.2289190808E+00   -7.2144322475E+00
-7.2000033617E+00   -7.1856320764E+00   -7.1713180473E+00   -7.1570609328E+00
-7.1428603944E+00   -7.1287160957E+00   -7.1146277035E+00   -7.1005948868E+00
-7.0866173175E+00   -7.0726946700E+00   -7.0588266211E+00   -7.0450128504E+00
-7.0312530398E+00   -7.0175468737E+00   -7.0038940390E+00   -6.9902942251E+00
-6.9767471237E+00   -6.9632524290E+00   -6.9498098373E+00   -6.9364190475E+00
-6.9230797608E+00   -6.9097916806E+00   -6.8965545127E+00   -6.8833679648E+00
-6.8702317474E+00   -6.8571455727E+00   -6.8441091553E+00   -6.8311222120E+00
-6.8181844617E+00   -6.8052956253E+00   -6.7924554261E+00   -6.7796635893E+00
-6.7669198420E+00   -6.7542239137E+00   -6.7415755357E+00   -6.7289744414E+00
-6.7164203660E+00   -6.7039130470E+00   -6.6914522236E+00   -6.6790376371E+00
-6.6666690304E+00   -6.6543461488E+00   -6.6420687390E+00   -6.6298365499E+00
-6.6176493320E+00   -6.6055068379E+00   -6.5934088218E+00   -6.5813550397E+00
-6.5693452495E+00   -6.5573792109E+00   -6.5454566851E+00   -6.5335774352E+00
-6.5217412261E+00   -6.5099478243E+00   -6.4981969979E+00   -6.4864885168E+00
-6.4748221525E+00   -6.4631976783E+00   -6.4516148688E+00   -6.4400735005E+00
-6.4285733514E+00   -6.4171142010E+00   -6.4056958305E+00   -6.3943180225E+00
-6.3829805615E+00   -6.3716832330E+00   -6.3604258244E+00   -6.3492081244E+00
-6.3380299235E+00   -6.3268910132E+00   -6.3157911868E+00   -6.3047302389E+00
-6.2937079657E+00   -6.2827241647E+00   -6.2717786347E+00   -6.2608711762E+00
-6.2500015907E+00   -6.2391696815E+00   -6.2283752530E+00   -6.2176181109E+00
-6.2068980624E+00   -6.1962149160E+00   -6.1855684814E+00   -6.1749585698E+00
-6.1643849935E+00   -6.1538475662E+00   -6.1433461028E+00   -6.1328804196E+00
-6.1224503339E+00   -6.1120556645E+00   -6.1016962313E+00   -6.0913718554E+00
-6.0810823591E+00   -6.0708275661E+00   -6.0606073010E+00   -6.0504213898E+00
-6.0402696595E+00   -6.0301519383E+00   -6.0200680557E+00   -6.0100178422E+00
</PP_LOCAL>
<PP_NONLOCAL>
<PP_BETA.1
type="real"
size="600"
columns="4"
index="1"
angular_momentum="0"
cutoff_radius_index=" 196"
cutoff_radius="    1.9500000000E+00" >
-3.6545422244E-10    8.1686457613E-02    1.6317213416E-01    2.4425689477E-01
3.2474188986E-01    4.0443018260E-01    4.8312736150E-01    5.6064213457E-01
6.3678690267E-01    7.1137830935E-01    7.8423776522E-01    8.5519194535E-01
9.2407325828E-01    9.9072028599E-01    1.0549781942E+00    1.1166991129E+00
1.1757424875E+00    1.2319754007E+00    1.2852728666E+00    1.3355180966E+00
1.3826027401E+00    1.4264271002E+00    1.4669003252E+00    1.5039405798E+00
1.5374751942E+00    1.5674407954E+00    1.5937834208E+00    1.6164586151E+00
1.6354315132E+00    1.6506769081E+00    1.6621793066E+00    1.6699329716E+00
1.6739419527E+00    1.6742201050E+00    1.6707910950E+00    1.6636883943E+00
1.6529552598E+00    1.6386447000E+00    1.6208194248E+00    1.5995517793E+00
1.5749236586E+00    1.5470264019E+00    1.5159606644E+00    1.4818362644E+00
1.4447720037E+00    1.4048954581E+00    1.3623427383E+00    1.3172582150E+00
1.2697942100E+00    1.2201106491E+00    1.1683746755E+00    1.1147602225E+00
1.0594475441E+00    1.0026227024E+00    9.4447701246E-01    8.8520644208E-01
8.2501097006E-01    7.6409390129E-01    7.0266114132E-01    6.4092043201E-01
5.7908055068E-01    5.1735047589E-01    4.5593852325E-01    3.9505145559E-01
3.3489357184E-01    2.7566577991E-01    2.1756465908E-01    1.6078151793E-01
1.0550145409E-01    5.1902422699E-02    1.5432031172E-04   -4.9581908363E-02
-9.7155133738E-02   -1.4242486721E-01   -1.8526204228E-01   -2.2554974372E-01
-2.6318387769E-01   -2.9807377606E-01   -3.3014272845E-01   -3.5932843612E-01
-3.8558338194E-01   -4.0887511189E-01   -4.2918642352E-01   -4.4651545798E-01
-4.6087569294E-01   -4.7229583431E-01   -4.8081960581E-01   -4.8650543624E-01
-4.8942604525E-01   -4.8966792928E-01   -4.8733075043E-01   -4.8252663177E-01
-4.7537936373E-01   -4.6602352690E-01   -4.5460353749E-01   -4.4127262252E-01
-4.2619173244E-01   -4.0952839967E-01   -3.9145555185E-01   -3.7215028933E-01
-3.5179263670E-01   -3.3056427825E-01   -3.0864728767E-01   -2.8622286206E-01
-2.6347007040E-01   -2.4056462636E-01   -2.1767769486E-01   -1.9497474160E-01
-1.7261443387E-01   -1.5074760045E-01   -1.2951625769E-01   -1.0905270768E-01
-8.9478713698E-02   -7.0904756974E-02   -5.3429377458E-02   -3.7138600612E-02
-2.2105450433E-02   -8.3895479689E-03    3.9632066984E-03    1.4920872248E-02
2.4465628387E-02    3.2593868451E-02    3.9316228914E-02    4.4657564163E-02
4.8656875584E-02    5.1367204646E-02    5.2855500977E-02    5.3202486508E-02
5.2502485465E-02    5.0863302848E-02    4.8405779180E-02    4.5265362485E-02
4.1587801756E-02    3.7522145654E-02    3.3212755196E-02    2.8795111314E-02
2.4395922212E-02    2.0131152062E-02    1.6104867660E-02    1.2408050775E-02
9.1175795988E-03    6.2966177529E-03    3.9886528784E-03    2.2105178836E-03
1.0182198099E-03    4.2395273072E-04    1.7024804465E-04    3.4970481449E-05
-1.1487133044E-05   -3.6162738172E-06    3.1810025198E-06    1.4884099486E-07
-6.3318983660E-07    0.0000000000E+00    0.0000000000E+00    0.0000000000E+00
0.0000000000E+00    0.0000000000E+00    0.0000000000E+00    0.0000000000E+00
0.0000000000E+00    0.0000000000E+00    0.0000000000E+00    0.0000000000E+00
0.0000000000E+00    0.0000000000E+00    0.0000000000E+00    0.0000000000E+00
0.0000000000E+00    0.0000000000E+00    0.0000000000E+00    0.0000000000E+00
0.0000000000E+00    0.0000000000E+00    0.0000000000E+00    0.0000000000E+00
0.0000000000E+00    0.0000000000E+00    0.0000000000E+00    0.0000000000E+00
0.0000000000E+00    0.0000000000E+00    0.0000000000E+00    0.0000000000E+00
0.0000000000E+00    0.0000000000E+00    0.0000000000E+00    0.0000000000E+00
0.0000000000E+00    0.0000000000E+00    0.0000000000E+00    0.0000000000E+00
0.0000000000E+00    0.0000000000E+00    0.0000000000E+00    0.0000000000E+00
0. 0. 0. 0.
0. 0. 0. 0.
0. 0. 0. 0.
0. 0. 0. 0.
0. 0. 0. 0.
0. 0. 0. 0.
0. 0. 0. 0.
0. 0. 0. 0.
0. 0. 0. 0.
0. 0. 0. 0.
0. 0. 0. 0.
0. 0. 0. 0.
0. 0. 0. 0.
0. 0. 0. 0.
0. 0. 0. 0.
0. 0. 0. 0.
0. 0. 0. 0.
0. 0. 0. 0.