<UPF version="2.0.1">
<PP_INFO>
NOTE!!!!
This file is trimmed with a mesh size of 600 from the original version.
Trimming performed at 2023-03-31 09:10:05.032326 by trim_upf.py version 0.1.0

This pseudopotential file has been produced using the code
ONCVPSP  (Optimized Norm-Conservinng Vanderbilt PSeudopotential)
scalar-relativistic version 3.3.0 08/16/2017 by D. R. Hamann
The code is available through a link at URL www.mat-simresearch.com.
Documentation with the package provides a full discription of the
input data below.
While it is not required under the terms of the GNU GPL, it is
suggested that you cite D. R. Hamann, Phys. Rev. B 88, 085117 (2013)
in any publication using these pseudopotentials.
<PP_INPUTFILE>
# ATOM AND REFERENCE CONFIGURATION
# atsym  z   nc   nv     iexc    psfile
Rb 37.00    6    3       4      upf
#
#   n    l    f        energy (Ha)
1    0    2.00
2    0    2.00
2    1    6.00
3    0    2.00
3    1    6.00
3    2   10.00
4    0    2.00
4    1    6.00
5    0    1.00
#
# PSEUDOPOTENTIAL AND OPTIMIZATION
# lmax
2
#
#   l,   rc,      ep,       ncon, nbas, qcut
0   1.70000  -1.17207    4    9   6.40000
1   1.75000  -0.58667    4    9   6.60000
2   1.90000   0.10000    4    9   7.40000
#
# LOCAL POTENTIAL
# lloc, lpopt,  rc(5),   dvloc0
4    5   1.70000      2.50000
#
# VANDERBILT-KLEINMAN-BYLANDER PROJECTORs
# l, nproj, debl
0    2   1.09006
1    2   3.50000
2    2   2.50000
#
# MODEL CORE CHARGE
# icmod, fcfact, rcfact
3   7.00000   1.25000
#
# LOG DERIVATIVE ANALYSIS
# epsh1, epsh2, depsh
-12.00   12.00    0.02
#
# OUTPUT GRID
# rlmax, drl
6.00    0.01
#
# TEST CONFIGURATIONS
# ncnf
0
# nvcnf
#   n    l    f
</PP_INPUTFILE>
</PP_INFO>
<!--                               -->
<!-- END OF HUMAN READABLE SECTION -->
<!--                               -->
<PP_HEADER
generated="Generated using ONCVPSP code by D. R. Hamann"
author="anonymous"
date="171031"
comment=""
element="Rb"
pseudo_type="NC"
relativistic="scalar"
is_ultrasoft="F"
is_paw="F"
is_coulomb="F"
has_so="F"
has_wfc="F"
has_gipaw="F"
core_correction="T"
functional="PBE"
z_valence="    9.00"
total_psenergy="  -4.85330200135E+01"
rho_cutoff="   2.30700000000E+01"
l_max="2"
l_local="-1"
mesh_size="   600"
number_of_wfc="3"
number_of_proj="6"/>
<PP_MESH>
<PP_R type="real"  size="600" columns="8">
0.0000    0.0100    0.0200    0.0300    0.0400    0.0500    0.0600    0.0700
0.0800    0.0900    0.1000    0.1100    0.1200    0.1300    0.1400    0.1500
0.1600    0.1700    0.1800    0.1900    0.2000    0.2100    0.2200    0.2300
0.2400    0.2500    0.2600    0.2700    0.2800    0.2900    0.3000    0.3100
0.3200    0.3300    0.3400    0.3500    0.3600    0.3700    0.3800    0.3900
0.4000    0.4100    0.4200    0.4300    0.4400    0.4500    0.4600    0.4700
0.4800    0.4900    0.5000    0.5100    0.5200    0.5300    0.5400    0.5500
0.5600    0.5700    0.5800    0.5900    0.6000    0.6100    0.6200    0.6300
0.6400    0.6500    0.6600    0.6700    0.6800    0.6900    0.7000    0.7100
0.7200    0.7300    0.7400    0.7500    0.7600    0.7700    0.7800    0.7900
0.8000    0.8100    0.8200    0.8300    0.8400    0.8500    0.8600    0.8700
0.8800    0.8900    0.9000    0.9100    0.9200    0.9300    0.9400    0.9500
0.9600    0.9700    0.9800    0.9900    1.0000    1.0100    1.0200    1.0300
1.0400    1.0500    1.0600    1.0700    1.0800    1.0900    1.1000    1.1100
1.1200    1.1300    1.1400    1.1500    1.1600    1.1700    1.1800    1.1900
1.2000    1.2100    1.2200    1.2300    1.2400    1.2500    1.2600    1.2700
1.2800    1.2900    1.3000    1.3100    1.3200    1.3300    1.3400    1.3500
1.3600    1.3700    1.3800    1.3900    1.4000    1.4100    1.4200    1.4300
1.4400    1.4500    1.4600    1.4700    1.4800    1.4900    1.5000    1.5100
1.5200    1.5300    1.5400    1.5500    1.5600    1.5700    1.5800    1.5900
1.6000    1.6100    1.6200    1.6300    1.6400    1.6500    1.6600    1.6700
1.6800    1.6900    1.7000    1.7100    1.7200    1.7300    1.7400    1.7500
1.7600    1.7700    1.7800    1.7900    1.8000    1.8100    1.8200    1.8300
1.8400    1.8500    1.8600    1.8700    1.8800    1.8900    1.9000    1.9100
1.9200    1.9300    1.9400    1.9500    1.9600    1.9700    1.9800    1.9900
2.0000    2.0100    2.0200    2.0300    2.0400    2.0500    2.0600    2.0700
2.0800    2.0900    2.1000    2.1100    2.1200    2.1300    2.1400    2.1500
2.1600    2.1700    2.1800    2.1900    2.2000    2.2100    2.2200    2.2300
2.2400    2.2500    2.2600    2.2700    2.2800    2.2900    2.3000    2.3100
2.3200    2.3300    2.3400    2.3500    2.3600    2.3700    2.3800    2.3900
2.4000    2.4100    2.4200    2.4300    2.4400    2.4500    2.4600    2.4700
2.4800    2.4900    2.5000    2.5100    2.5200    2.5300    2.5400    2.5500
2.5600    2.5700    2.5800    2.5900    2.6000    2.6100    2.6200    2.6300
2.6400    2.6500    2.6600    2.6700    2.6800    2.6900    2.7000    2.7100
2.7200    2.7300    2.7400    2.7500    2.7600    2.7700    2.7800    2.7900
2.8000    2.8100    2.8200    2.8300    2.8400    2.8500    2.8600    2.8700
2.8800    2.8900    2.9000    2.9100    2.9200    2.9300    2.9400    2.9500
2.9600    2.9700    2.9800    2.9900    3.0000    3.0100    3.0200    3.0300
3.0400    3.0500    3.0600    3.0700    3.0800    3.0900    3.1000    3.1100
3.1200    3.1300    3.1400    3.1500    3.1600    3.1700    3.1800    3.1900
3.2000    3.2100    3.2200    3.2300    3.2400    3.2500    3.2600    3.2700
3.2800    3.2900    3.3000    3.3100    3.3200    3.3300    3.3400    3.3500
3.3600    3.3700    3.3800    3.3900    3.4000    3.4100    3.4200    3.4300
3.4400    3.4500    3.4600    3.4700    3.4800    3.4900    3.5000    3.5100
3.5200    3.5300    3.5400    3.5500    3.5600    3.5700    3.5800    3.5900
3.6000    3.6100    3.6200    3.6300    3.6400    3.6500    3.6600    3.6700
3.6800    3.6900    3.7000    3.7100    3.7200    3.7300    3.7400    3.7500
3.7600    3.7700    3.7800    3.7900    3.8000    3.8100    3.8200    3.8300
3.8400    3.8500    3.8600    3.8700    3.8800    3.8900    3.9000    3.9100
3.9200    3.9300    3.9400    3.9500    3.9600    3.9700    3.9800    3.9900
4.0000    4.0100    4.0200    4.0300    4.0400    4.0500    4.0600    4.0700
4.0800    4.0900    4.1000    4.1100    4.1200    4.1300    4.1400    4.1500
4.1600    4.1700    4.1800    4.1900    4.2000    4.2100    4.2200    4.2300
4.2400    4.2500    4.2600    4.2700    4.2800    4.2900    4.3000    4.3100
4.3200    4.3300    4.3400    4.3500    4.3600    4.3700    4.3800    4.3900
4.4000    4.4100    4.4200    4.4300    4.4400    4.4500    4.4600    4.4700
4.4800    4.4900    4.5000    4.5100    4.5200    4.5300    4.5400    4.5500
4.5600    4.5700    4.5800    4.5900    4.6000    4.6100    4.6200    4.6300
4.6400    4.6500    4.6600    4.6700    4.6800    4.6900    4.7000    4.7100
4.7200    4.7300    4.7400    4.7500    4.7600    4.7700    4.7800    4.7900
4.8000    4.8100    4.8200    4.8300    4.8400    4.8500    4.8600    4.8700
4.8800    4.8900    4.9000    4.9100    4.9200    4.9300    4.9400    4.9500
4.9600    4.9700    4.9800    4.9900    5.0000    5.0100    5.0200    5.0300
5.0400    5.0500    5.0600    5.0700    5.0800    5.0900    5.1000    5.1100
5.1200    5.1300    5.1400    5.1500    5.1600    5.1700    5.1800    5.1900
5.2000    5.2100    5.2200    5.2300    5.2400    5.2500    5.2600    5.2700
5.2800    5.2900    5.3000    5.3100    5.3200    5.3300    5.3400    5.3500
5.3600    5.3700    5.3800    5.3900    5.4000    5.4100    5.4200    5.4300
5.4400    5.4500    5.4600    5.4700    5.4800    5.4900    5.5000    5.5100
5.5200    5.5300    5.5400    5.5500    5.5600    5.5700    5.5800    5.5900
5.6000    5.6100    5.6200    5.6300    5.6400    5.6500    5.6600    5.6700
5.6800    5.6900    5.7000    5.7100    5.7200    5.7300    5.7400    5.7500
5.7600    5.7700    5.7800    5.7900    5.8000    5.8100    5.8200    5.8300
5.8400    5.8500    5.8600    5.8700    5.8800    5.8900    5.9000    5.9100
5.9200    5.9300    5.9400    5.9500    5.9600    5.9700    5.9800    5.9900
</PP_R>
<PP_RAB type="real"  size="600" columns="8">
0.0100    0.0100    0.0100    0.0100    0.0100    0.0100    0.0100    0.0100
0.0100    0.0100    0.0100    0.0100    0.0100    0.0100    0.0100    0.0100
0.0100    0.0100    0.0100    0.0100    0.0100    0.0100    0.0100    0.0100
0.0100    0.0100    0.0100    0.0100    0.0100    0.0100    0.0100    0.0100
0.0100    0.0100    0.0100    0.0100    0.0100    0.0100    0.0100    0.0100
0.0100    0.0100    0.0100    0.0100    0.0100    0.0100    0.0100    0.0100
0.0100    0.0100    0.0100    0.0100    0.0100    0.0100    0.0100    0.0100
0.0100    0.0100    0.0100    0.0100    0.0100    0.0100    0.0100    0.0100
0.0100    0.0100    0.0100    0.0100    0.0100    0.0100    0.0100    0.0100
0.0100    0.0100    0.0100    0.0100    0.0100    0.0100    0.0100    0.0100
0.0100    0.0100    0.0100    0.0100    0.0100    0.0100    0.0100    0.0100
0.0100    0.0100    0.0100    0.0100    0.0100    0.0100    0.0100    0.0100
0.0100    0.0100    0.0100    0.0100    0.0100    0.0100    0.0100    0.0100
0.0100    0.0100    0.0100    0.0100    0.0100    0.0100    0.0100    0.0100
0.0100    0.0100    0.0100    0.0100    0.0100    0.0100    0.0100    0.0100
0.0100    0.0100    0.0100    0.0100    0.0100    0.0100    0.0100    0.0100
0.0100    0.0100    0.0100    0.0100    0.0100    0.0100    0.0100    0.0100
0.0100    0.0100    0.0100    0.0100    0.0100    0.0100    0.0100    0.0100
0.0100    0.0100    0.0100    0.0100    0.0100    0.0100    0.0100    0.0100
0.0100    0.0100    0.0100    0.0100    0.0100    0.0100    0.0100    0.0100
0.0100    0.0100    0.0100    0.0100    0.0100    0.0100    0.0100    0.0100
0.0100    0.0100    0.0100    0.0100    0.0100    0.0100    0.0100    0.0100
0.0100    0.0100    0.0100    0.0100    0.0100    0.0100    0.0100    0.0100
0.0100    0.0100    0.0100    0.0100    0.0100    0.0100    0.0100    0.0100
0.0100    0.0100    0.0100    0.0100    0.0100    0.0100    0.0100    0.0100
0.0100    0.0100    0.0100    0.0100    0.0100    0.0100    0.0100    0.0100
0.0100    0.0100    0.0100    0.0100    0.0100    0.0100    0.0100    0.0100
0.0100    0.0100    0.0100    0.0100    0.0100    0.0100    0.0100    0.0100
0.0100    0.0100    0.0100    0.0100    0.0100    0.0100    0.0100    0.0100
0.0100    0.0100    0.0100    0.0100    0.0100    0.0100    0.0100    0.0100
0.0100    0.0100    0.0100    0.0100    0.0100    0.0100    0.0100    0.0100
0.0100    0.0100    0.0100    0.0100    0.0100    0.0100    0.0100    0.0100
0.0100    0.0100    0.0100    0.0100    0.0100    0.0100    0.0100    0.0100
0.0100    0.0100    0.0100    0.0100    0.0100    0.0100    0.0100    0.0100
0.0100    0.0100    0.0100    0.0100    0.0100    0.0100    0.0100    0.0100
0.0100    0.0100    0.0100    0.0100    0.0100    0.0100    0.0100    0.0100
0.0100    0.0100    0.0100    0.0100    0.0100    0.0100    0.0100    0.0100
0.0100    0.0100    0.0100    0.0100    0.0100    0.0100    0.0100    0.0100
0.0100    0.0100    0.0100    0.0100    0.0100    0.0100    0.0100    0.0100
0.0100    0.0100    0.0100    0.0100    0.0100    0.0100    0.0100    0.0100
0.0100    0.0100    0.0100    0.0100    0.0100    0.0100    0.0100    0.0100
0.0100    0.0100    0.0100    0.0100    0.0100    0.0100    0.0100    0.0100
0.0100    0.0100    0.0100    0.0100    0.0100    0.0100    0.0100    0.0100
0.0100    0.0100    0.0100    0.0100    0.0100    0.0100    0.0100    0.0100
0.0100    0.0100    0.0100    0.0100    0.0100    0.0100    0.0100    0.0100
0.0100    0.0100    0.0100    0.0100    0.0100    0.0100    0.0100    0.0100
0.0100    0.0100    0.0100    0.0100    0.0100    0.0100    0.0100    0.0100
0.0100    0.0100    0.0100    0.0100    0.0100    0.0100    0.0100    0.0100
0.0100    0.0100    0.0100    0.0100    0.0100    0.0100    0.0100    0.0100
0.0100    0.0100    0.0100    0.0100    0.0100    0.0100    0.0100    0.0100
0.0100    0.0100    0.0100    0.0100    0.0100    0.0100    0.0100    0.0100
0.0100    0.0100    0.0100    0.0100    0.0100    0.0100    0.0100    0.0100
0.0100    0.0100    0.0100    0.0100    0.0100    0.0100    0.0100    0.0100
0.0100    0.0100    0.0100    0.0100    0.0100    0.0100    0.0100    0.0100
0.0100    0.0100    0.0100    0.0100    0.0100    0.0100    0.0100    0.0100
0.0100    0.0100    0.0100    0.0100    0.0100    0.0100    0.0100    0.0100
0.0100    0.0100    0.0100    0.0100    0.0100    0.0100    0.0100    0.0100
0.0100    0.0100    0.0100    0.0100    0.0100    0.0100    0.0100    0.0100
0.0100    0.0100    0.0100    0.0100    0.0100    0.0100    0.0100    0.0100
0.0100    0.0100    0.0100    0.0100    0.0100    0.0100    0.0100    0.0100
0.0100    0.0100    0.0100    0.0100    0.0100    0.0100    0.0100    0.0100
0.0100    0.0100    0.0100    0.0100    0.0100    0.0100    0.0100    0.0100
0.0100    0.0100    0.0100    0.0100    0.0100    0.0100    0.0100    0.0100
0.0100    0.0100    0.0100    0.0100    0.0100    0.0100    0.0100    0.0100
0.0100    0.0100    0.0100    0.0100    0.0100    0.0100    0.0100    0.0100
0.0100    0.0100    0.0100    0.0100    0.0100    0.0100    0.0100    0.0100
0.0100    0.0100    0.0100    0.0100    0.0100    0.0100    0.0100    0.0100
0.0100    0.0100    0.0100    0.0100    0.0100    0.0100    0.0100    0.0100
0.0100    0.0100    0.0100    0.0100    0.0100    0.0100    0.0100    0.0100
0.0100    0.0100    0.0100    0.0100    0.0100    0.0100    0.0100    0.0100
0.0100    0.0100    0.0100    0.0100    0.0100    0.0100    0.0100    0.0100
0.0100    0.0100    0.0100    0.0100    0.0100    0.0100    0.0100    0.0100
0.0100    0.0100    0.0100    0.0100    0.0100    0.0100    0.0100    0.0100
0.0100    0.0100    0.0100    0.0100    0.0100    0.0100    0.0100    0.0100
0.0100    0.0100    0.0100    0.0100    0.0100    0.0100    0.0100    0.0100
</PP_RAB>
</PP_MESH>
<PP_LOCAL type="real"  size="600" columns="4">
-1.6327760318E+01   -1.6327219890E+01   -1.6325599035E+01   -1.6322899051E+01
-1.6319122101E+01   -1.6314271205E+01   -1.6308350235E+01   -1.6301363905E+01
-1.6293317768E+01   -1.6284218195E+01   -1.6274072370E+01   -1.6262888277E+01
-1.6250674678E+01   -1.6237441107E+01   -1.6223197846E+01   -1.6207955913E+01
-1.6191727044E+01   -1.6174523674E+01   -1.6156358921E+01   -1.6137246569E+01
-1.6117201048E+01   -1.6096237418E+01   -1.6074371352E+01   -1.6051619120E+01
-1.6027997572E+01   -1.6003524117E+01   -1.5978216714E+01   -1.5952093852E+01
-1.5925174535E+01   -1.5897478266E+01   -1.5869025033E+01   -1.5839835289E+01
-1.5809929943E+01   -1.5779330338E+01   -1.5748058240E+01   -1.5716135816E+01
-1.5683585621E+01   -1.5650430581E+01   -1.5616693971E+01   -1.5582399400E+01
-1.5547570793E+01   -1.5512232366E+01   -1.5476408611E+01   -1.5440124272E+01
-1.5403404324E+01   -1.5366273953E+01   -1.5328758531E+01   -1.5290883595E+01
-1.5252674821E+01   -1.5214158005E+01   -1.5175359036E+01   -1.5136303874E+01
-1.5097018527E+01   -1.5057529028E+01   -1.5017861409E+01   -1.4978041683E+01
-1.4938095819E+01   -1.4898049721E+01   -1.4857929206E+01   -1.4817759984E+01
-1.4777567638E+01   -1.4737377602E+01   -1.4697215143E+01   -1.4657105341E+01
-1.4617073066E+01   -1.4577142965E+01   -1.4537339434E+01   -1.4497686603E+01
-1.4458208310E+01   -1.4418928079E+01   -1.4379869097E+01   -1.4341054183E+01
-1.4302505764E+01   -1.4264245841E+01   -1.4226295954E+01   -1.4188677146E+01
-1.4151409921E+01   -1.4114514197E+01   -1.4078009262E+01   -1.4041913715E+01
-1.4006245410E+01   -1.3971021396E+01   -1.3936257846E+01   -1.3901969988E+01
-1.3868172028E+01   -1.3834877069E+01   -1.3802097030E+01   -1.3769842552E+01
-1.3738122914E+01   -1.3706945936E+01   -1.3676317881E+01   -1.3646243364E+01
-1.3616725248E+01   -1.3587764552E+01   -1.3559360351E+01   -1.3531509683E+01
-1.3504207458E+01   -1.3477446370E+01   -1.3451216812E+01   -1.3425506803E+01
-1.3400301913E+01   -1.3375585201E+01   -1.3351337162E+01   -1.3327535680E+01
-1.3304155991E+01   -1.3281170661E+01   -1.3258549571E+01   -1.3236259915E+01
-1.3214266214E+01   -1.3192530337E+01   -1.3171011542E+01   -1.3149666528E+01
-1.3128449501E+01   -1.3107312253E+01   -1.3086204264E+01   -1.3065072809E+01
-1.3043863087E+01   -1.3022518365E+01   -1.3000980131E+01   -1.2979188274E+01
-1.2957081271E+01   -1.2934596393E+01   -1.2911669924E+01   -1.2888237399E+01
-1.2864233856E+01   -1.2839594101E+01   -1.2814252990E+01   -1.2788145726E+01
-1.2761208166E+01   -1.2733377144E+01   -1.2704590805E+01   -1.2674788956E+01
-1.2643913417E+01   -1.2611908396E+01   -1.2578720858E+01   -1.2544300914E+01
-1.2508602211E+01   -1.2471582323E+01   -1.2433203153E+01   -1.2393431330E+01
-1.2352238610E+01   -1.2309602263E+01   -1.2265505472E+01   -1.2219937701E+01
-1.2172895068E+01   -1.2124380692E+01   -1.2074405021E+01   -1.2022986129E+01
-1.1970149989E+01   -1.1915930701E+01   -1.1860370669E+01   -1.1803520735E+01
-1.1745440238E+01   -1.1686197000E+01   -1.1625867231E+01   -1.1564535332E+01
-1.1502293582E+01   -1.1439241703E+01   -1.1375486281E+01   -1.1311140018E+01
-1.1246320817E+01   -1.1181150648E+01   -1.1115754212E+01   -1.1050257335E+01
-1.0984785097E+01   -1.0919459730E+01   -1.0854397980E+01   -1.0789708485E+01
-1.0725487754E+01   -1.0661818631E+01   -1.0598764955E+01   -1.0536363446E+01
-1.0474629581E+01   -1.0413562607E+01   -1.0353153471E+01   -1.0293397259E+01
-1.0234293738E+01   -1.0175847826E+01   -1.0118066629E+01   -1.0060950490E+01
-1.0004491803E+01   -9.9486791233E+00   -9.8934986379E+00   -9.8389382477E+00
-9.7849919845E+00   -9.7316544237E+00   -9.6789157301E+00   -9.6267658784E+00
-9.5751961525E+00   -9.5241980525E+00   -9.4737628823E+00   -9.4238818414E+00
-9.3745461933E+00   -9.3257472659E+00   -9.2774764176E+00   -9.2297250477E+00
-9.1824846075E+00   -9.1357466074E+00   -9.0895026235E+00   -9.0437443064E+00
-8.9984633884E+00   -8.9536516920E+00   -8.9093011377E+00   -8.8654037521E+00
-8.8219516755E+00   -8.7789371694E+00   -8.7363526237E+00   -8.6941905636E+00
-8.6524436557E+00   -8.6111047141E+00   -8.5701667051E+00   -8.5296227528E+00
-8.4894661419E+00   -8.4496903221E+00   -8.4102889102E+00   -8.3712556926E+00
-8.3325846258E+00   -8.2942698376E+00   -8.2563056263E+00   -8.2186864607E+00
-8.1814069777E+00   -8.1444619810E+00   -8.1078464374E+00   -8.0715554744E+00
-8.0355843756E+00   -7.9999285766E+00   -7.9645836603E+00   -7.9295453515E+00
-7.8948095111E+00   -7.8603721310E+00   -7.8262293271E+00   -7.7923773336E+00
-7.7588124963E+00   -7.7255312663E+00   -7.6925301932E+00   -7.6598059188E+00
-7.6273551708E+00   -7.5951747560E+00   -7.5632615546E+00   -7.5316125138E+00
-7.5002246426E+00   -7.4690950058E+00   -7.4382207191E+00   -7.4075989444E+00
-7.3772268848E+00   -7.3471017809E+00   -7.3172209069E+00   -7.2875815673E+00
-7.2581810936E+00   -7.2290168423E+00   -7.2000861920E+00   -7.1713865420E+00
-7.1429153111E+00   -7.1146699359E+00   -7.0866478705E+00   -7.0588465861E+00
-7.0312635707E+00   -7.0038963294E+00   -6.9767423850E+00   -6.9497992782E+00
-6.9230645690E+00   -6.8965358375E+00   -6.8702106848E+00   -6.8440867349E+00
-6.8181616352E+00   -6.7924330586E+00   -6.7668987045E+00   -6.7415563002E+00
-6.7164036024E+00   -6.6914383983E+00   -6.6666585068E+00   -6.6420617795E+00
-6.6176461018E+00   -6.5934093936E+00   -6.5693496099E+00   -6.5454647414E+00
-6.5217528147E+00   -6.4982118925E+00   -6.4748400736E+00   -6.4516354928E+00
-6.4285963203E+00   -6.4057207617E+00   -6.3830070566E+00   -6.3604534786E+00
-6.3380583340E+00   -6.3158199609E+00   -6.2937367279E+00   -6.2718070335E+00
-6.2500293041E+00   -6.2284019934E+00   -6.2069235807E+00   -6.1855925698E+00
-6.1644074875E+00   -6.1433668824E+00   -6.1224693239E+00   -6.1017134005E+00
-6.0810977189E+00   -6.0606209031E+00   -6.0402815931E+00   -6.0200784439E+00
-6.0000101251E+00   -5.9800753198E+00   -5.9602727241E+00   -5.9406010465E+00
-5.9210590075E+00   -5.9016453394E+00   -5.8823587858E+00   -5.8631981016E+00
-5.8441620532E+00   -5.8252494180E+00   -5.8064589849E+00   -5.7877895547E+00
-5.7692399397E+00   -5.7508089646E+00   -5.7324954666E+00   -5.7142982957E+00
-5.6962163154E+00   -5.6782484028E+00   -5.6603934491E+00   -5.6426503603E+00
-5.6250180572E+00   -5.6074954760E+00   -5.5900815685E+00   -5.5727753026E+00
-5.5555756622E+00   -5.5384816479E+00   -5.5214922765E+00   -5.5046065813E+00
-5.4878236122E+00   -5.4711424356E+00   -5.4545621339E+00   -5.4380818052E+00
-5.4217005636E+00   -5.4054175379E+00   -5.3892318716E+00   -5.3731427223E+00
-5.3571492609E+00   -5.3412506710E+00   -5.3254461479E+00   -5.3097348981E+00
-5.2941161385E+00   -5.2785890952E+00   -5.2631530030E+00   -5.2478071044E+00
-5.2325506486E+00   -5.2173828910E+00   -5.2023030921E+00   -5.1873105172E+00
-5.1724044351E+00   -5.1575841182E+00   -5.1428488414E+00   -5.1281978819E+00
-5.1136305194E+00   -5.0991460359E+00   -5.0847437143E+00   -5.0704228631E+00
-5.0561827563E+00   -5.0420226435E+00   -5.0279418075E+00   -5.0139394704E+00
-5.0000148600E+00   -4.9861676241E+00   -4.9723971822E+00   -4.9587028821E+00
-4.9450846747E+00   -4.9315407014E+00   -4.9180696987E+00   -4.9046704941E+00
-4.8913414218E+00   -4.8780822368E+00   -4.8648933273E+00   -4.8517748149E+00
-4.8387270321E+00   -4.8257504784E+00   -4.8128442099E+00   -4.8000077386E+00
-4.7872404545E+00   -4.7745415633E+00   -4.7619104034E+00   -4.7493462770E+00
-4.7368484532E+00   -4.7244161798E+00   -4.7120487067E+00   -4.6997456531E+00
-4.6875065395E+00   -4.6753309211E+00   -4.6632184632E+00   -4.6511686681E+00
-4.6391810084E+00   -4.6272550016E+00   -4.6153901631E+00   -4.6035859823E+00
-4.5918420242E+00   -4.5801578290E+00   -4.5685329421E+00   -4.5569669144E+00
-4.5454593009E+00   -4.5340096592E+00   -4.5226175526E+00   -4.5112825485E+00
-4.5000042190E+00   -4.4887821400E+00   -4.4776158920E+00   -4.4665050596E+00
-4.4554492313E+00   -4.4444480000E+00   -4.4335009623E+00   -4.4226077190E+00
-4.4117678746E+00   -4.4009810376E+00   -4.3902468203E+00   -4.3795648387E+00
-4.3689347127E+00   -4.3583560657E+00   -4.3478285247E+00   -4.3373517204E+00
-4.3269252871E+00   -4.3165488625E+00   -4.3062220876E+00   -4.2959446073E+00
-4.2857160693E+00   -4.2755361250E+00   -4.2654044291E+00   -4.2553206394E+00
-4.2452844169E+00   -4.2352954259E+00   -4.2253533339E+00   -4.2154578114E+00
-4.2056085319E+00   -4.1958051722E+00   -4.1860474117E+00   -4.1763349332E+00
-4.1666674221E+00   -4.1570445669E+00   -4.1474660589E+00   -4.1379315923E+00
-4.1284408638E+00   -4.1189935734E+00   -4.1095894233E+00   -4.1002281188E+00
-4.0909093677E+00   -4.0816328805E+00   -4.0723983702E+00   -4.0632055526E+00
-4.0540541458E+00   -4.0449438708E+00   -4.0358744506E+00   -4.0268456112E+00
-4.0178570807E+00   -4.0089085897E+00   -3.9999998712E+00   -3.9911306606E+00
-3.9823006958E+00   -3.9735097166E+00   -3.9647574654E+00   -3.9560436869E+00
-3.9473681279E+00   -3.9387305374E+00   -3.9301306666E+00   -3.9215682691E+00
-3.9130431003E+00   -3.9045549180E+00   -3.8961034820E+00   -3.8876885540E+00
-3.8793098981E+00   -3.8709672801E+00   -3.8626604681E+00   -3.8543892319E+00
-3.8461533435E+00   -3.8379525768E+00   -3.8297867075E+00   -3.8216555133E+00
-3.8135587739E+00   -3.8054962706E+00   -3.7974677867E+00   -3.7894731074E+00
-3.7815120196E+00   -3.7735843120E+00   -3.7656897750E+00   -3.7578282009E+00
-3.7499993837E+00   -3.7422031191E+00   -3.7344392043E+00   -3.7267074385E+00
-3.7190076224E+00   -3.7113395583E+00   -3.7037030502E+00   -3.6960979038E+00
-3.6885239262E+00   -3.6809809261E+00   -3.6734687139E+00   -3.6659871016E+00
-3.6585359024E+00   -3.6511149313E+00   -3.6437240048E+00   -3.6363629407E+00
-3.6290315584E+00   -3.6217296788E+00   -3.6144571240E+00   -3.6072137179E+00
-3.5999992855E+00   -3.5928136532E+00   -3.5856566491E+00   -3.5785281022E+00
-3.5714278434E+00   -3.5643557044E+00   -3.5573115186E+00   -3.5502951205E+00
-3.5433063461E+00   -3.5363450326E+00   -3.5294110184E+00   -3.5225041432E+00
-3.5156242481E+00   -3.5087711751E+00   -3.5019447679E+00   -3.4951448710E+00
-3.4883713304E+00   -3.4816239930E+00   -3.4749027072E+00   -3.4682073223E+00
-3.4615376890E+00   -3.4548936589E+00   -3.4482750848E+00   -3.4416818208E+00
-3.4351137220E+00   -3.4285706446E+00   -3.4220524458E+00   -3.4155589840E+00
-3.4090901188E+00   -3.4026457105E+00   -3.3962256208E+00   -3.3898297122E+00
-3.3834578485E+00   -3.3771098942E+00   -3.3707857151E+00   -3.3644851778E+00
-3.3582081500E+00   -3.3519545004E+00   -3.3457240986E+00   -3.3395168152E+00
-3.3333325218E+00   -3.3271710908E+00   -3.3210323959E+00   -3.3149163113E+00
-3.3088227123E+00   -3.3027514752E+00   -3.2967024771E+00   -3.2906755961E+00
-3.2846707110E+00   -3.2786877017E+00   -3.2727264489E+00   -3.2667868340E+00
-3.2608687395E+00   -3.2549720487E+00   -3.2490966456E+00   -3.2432424152E+00
-3.2374092432E+00   -3.2315970163E+00   -3.2258056218E+00   -3.2200349478E+00
-3.2142848835E+00   -3.2085553186E+00   -3.2028461436E+00   -3.1971572499E+00
-3.1914885297E+00   -3.1858398758E+00   -3.1802111819E+00   -3.1746023423E+00
-3.1690132522E+00   -3.1634438075E+00   -3.1578939048E+00   -3.1523634413E+00
-3.1468523152E+00   -3.1413604252E+00   -3.1358876707E+00   -3.1304339520E+00
-3.1249991698E+00   -3.1195832258E+00   -3.1141860221E+00   -3.1088074617E+00
-3.1034474481E+00   -3.0981058855E+00   -3.0927826789E+00   -3.0874777338E+00
-3.0821909563E+00   -3.0769222534E+00   -3.0716715324E+00   -3.0664387015E+00
-3.0612236694E+00   -3.0560263455E+00   -3.0508466396E+00   -3.0456844624E+00
-3.0405397251E+00   -3.0354123394E+00   -3.0303022176E+00   -3.0252092728E+00
-3.0201334184E+00   -3.0150745687E+00   -3.0100326382E+00   -3.0050075423E+00
</PP_LOCAL>
<PP_NONLOCAL>
<PP_BETA.1
type="real"
size="600"
columns="4"
index="1"
angular_momentum="0"
cutoff_radius_index=" 196"
cutoff_radius="    1.9500000000E+00" >
3.9100844784E-10    5.7280105876E-02    1.1449972305E-01    1.7159804699E-01
2.2851364827E-01    2.8518417702E-01    3.4154608728E-01    3.9753438757E-01
4.5308242331E-01    5.0812169660E-01    5.6258172791E-01    6.1638996401E-01
6.6947173541E-01    7.2175026613E-01    7.7314673755E-01    8.2358040757E-01
8.7296878522E-01    9.2122786010E-01    9.6827238529E-01    1.0140162113E+00
1.0583726681E+00    1.1012549913E+00    1.1425767883E+00    1.1822525382E+00
1.2201981212E+00    1.2563313703E+00    1.2905726381E+00    1.3228453735E+00
1.3530766991E+00    1.3811979837E+00    1.4071454014E+00    1.4308604702E+00
1.4522905643E+00    1.4713893914E+00    1.4881174302E+00    1.5024423215E+00
1.5143392082E+00    1.5237910181E+00    1.5307886878E+00    1.5353313219E+00
1.5374262874E+00    1.5370892404E+00    1.5343440846E+00    1.5292228617E+00
1.5217655759E+00    1.5120199524E+00    1.5000411344E+00    1.4858913212E+00
1.4696393520E+00    1.4513602406E+00    1.4311346659E+00    1.4090484246E+00
1.3851918538E+00    1.3596592279E+00    1.3325481398E+00    1.3039588715E+00
1.2739937626E+00    1.2427565842E+00    1.2103519238E+00    1.1768845904E+00
1.1424590442E+00    1.1071788581E+00    1.0711462161E+00    1.0344614541E+00
9.9722264586E-01    9.5952523953E-01    9.2146174582E-01    8.8312148040E-01
8.4459036134E-01    8.0595076175E-01    7.6728141675E-01    7.2865738344E-01
6.9015005125E-01    6.5182719963E-01    6.1375309925E-01    5.7598865206E-01
5.3859156528E-01    5.0161655364E-01    4.6511556397E-01    4.2913801575E-01
3.9373105135E-01    3.5893978929E-01    3.2480757399E-01    2.9137621571E-01
2.5868621451E-01    2.2677696239E-01    1.9568691835E-01    1.6545375150E-01
1.3611444812E-01    1.0770537909E-01    8.0262325109E-02    5.3820457771E-02
2.8414275437E-02    4.0774938857E-03   -1.9157107565E-02   -4.1257882731E-02
-6.2194555473E-02   -8.1938493402E-02   -1.0046301414E-01   -1.1774371909E-01
-1.3375884913E-01   -1.4848965577E-01   -1.6192078111E-01   -1.7404063933E-01
-1.8484179221E-01   -1.9432131098E-01   -2.0248111683E-01   -2.0932829229E-01
-2.1487535622E-01   -2.1914049502E-01   -2.2214774362E-01   -2.2392710993E-01
-2.2451463753E-01   -2.2395240175E-01   -2.2228843548E-01   -2.1957658200E-01
-2.1587627304E-01   -2.1125223124E-01   -2.0577409780E-01   -1.9951598693E-01
-1.9255596974E-01   -1.8497549182E-01   -1.7685872963E-01   -1.6829189209E-01
-1.5936247441E-01   -1.5015847294E-01   -1.4076757013E-01   -1.3127629932E-01
-1.2176920075E-01   -1.1232797949E-01   -1.0303067729E-01   -9.3950870334E-02
-8.5156904890E-02   -7.6711183042E-02   -6.8669510260E-02   -6.1080516195E-02
-5.3985160153E-02   -4.7416330337E-02   -4.1398547514E-02   -3.5947780615E-02
-3.1071380592E-02   -2.6768140563E-02   -2.3028483023E-02   -1.9834779665E-02
-1.7161803085E-02   -1.4977307672E-02   -1.3242740896E-02   -1.1914072509E-02
-1.0942741779E-02   -1.0276705914E-02   -9.8615807060E-03   -9.6418589116E-03
-9.5621831426E-03   -9.5686632707E-03   -9.6102001068E-03   -9.6398074398E-03
-9.6158848033E-03   -9.5034256599E-03   -9.2751129401E-03   -8.9122726398E-03
-8.4056398796E-03   -7.7558919893E-03   -6.9739064934E-03   -6.0806806981E-03
-5.1068749221E-03   -4.0918964775E-03   -3.0835409739E-03   -2.1311404924E-03
-1.2848070803E-03   -6.1578485884E-04   -1.8139871069E-04    2.6824479891E-05
6.1057148296E-05    1.4689461189E-05   -1.3646033572E-05   -6.4074524187E-06
2.3740484975E-06    1.6283048116E-06   -1.0368363833E-07   -9.9325352322E-08
0.0000000000E+00    0.0000000000E+00    0.0000000000E+00    0.0000000000E+00
0.0000000000E+00    0.0000000000E+00    0.0000000000E+00    0.0000000000E+00
0.0000000000E+00    0.0000000000E+00    0.0000000000E+00    0.0000000000E+00
0.0000000000E+00    0.0000000000E+00    0.0000000000E+00    0.0000000000E+00
0. 0. 0. 0.
0. 0. 0. 0.
0. 0. 0. 0.
0. 0. 0. 0.
0. 0. 0. 0.
0. 0. 0. 0.
0. 0. 0. 0.
0. 0. 0. 0.
0. 0. 0. 0.
0. 0. 0. 0.
0. 0. 0. 0.
0. 0. 0. 0.
0. 0. 0. 0.
0. 0. 0. 0.
0. 0. 0. 0.
0. 0. 0. 0.
0. 0. 0. 0.
0. 0. 0. 0.
0. 0. 0. 0.
0. 0. 0. 0.
0. 0. 0. 0.
0. 0. 0. 0.
0. 0. 0. 0.
0. 0. 0. 0.
0. 0. 0. 0.
0. 0. 0. 0.
0. 0. 0. 0.
0. 0. 0. 0.
0. 0. 0. 0.