<UPF version="2.0.1">
<PP_INFO>
NOTE!!!!
This file is trimmed with a mesh size of 600 from the original version.
Trimming performed at 2023-03-31 09:10:05.164935 by trim_upf.py version 0.1.0

This pseudopotential file has been produced using the code
ONCVPSP  (Optimized Norm-Conservinng Vanderbilt PSeudopotential)
scalar-relativistic version 3.3.0 08/16/2017 by D. R. Hamann
The code is available through a link at URL www.mat-simresearch.com.
Documentation with the package provides a full discription of the
input data below.
While it is not required under the terms of the GNU GPL, it is
suggested that you cite D. R. Hamann, Phys. Rev. B 88, 085117 (2013)
in any publication using these pseudopotentials.
<PP_INPUTFILE>
# ATOM AND REFERENCE CONFIGURATION
# atsym  z   nc   nv     iexc    psfile
Re 75.00   10    4       4      upf
#
#   n    l    f        energy (Ha)
1    0    2.00
2    0    2.00
2    1    6.00
3    0    2.00
3    1    6.00
3    2   10.00
4    0    2.00
4    1    6.00
4    2   10.00
4    3   14.00
5    0    2.00
5    1    6.00
5    2    5.00
6    0    2.00
#
# PSEUDOPOTENTIAL AND OPTIMIZATION
# lmax
3
#
#   l,   rc,      ep,       ncon, nbas, qcut
0   1.60000  -3.13294    4    8   7.40000
1   1.60000  -1.72761    4    8   7.80000
2   1.60000  -0.19723    4    9   7.40000
3   2.00000   0.15000    4    8   6.00000
#
# LOCAL POTENTIAL
# lloc, lpopt,  rc(5),   dvloc0
4    5   1.60000      0.00000
#
# VANDERBILT-KLEINMAN-BYLANDER PROJECTORs
# l, nproj, debl
0    2   2.91452
1    2   2.00000
2    2   1.80000
3    2   2.90000
#
# MODEL CORE CHARGE
# icmod, fcfact, rcfact
3   4.00000   1.44000
#
# LOG DERIVATIVE ANALYSIS
# epsh1, epsh2, depsh
-12.00   12.00    0.02
#
# OUTPUT GRID
# rlmax, drl
6.00    0.01
#
# TEST CONFIGURATIONS
# ncnf
0
# nvcnf
#   n    l    f
</PP_INPUTFILE>
</PP_INFO>
<!--                               -->
<!-- END OF HUMAN READABLE SECTION -->
<!--                               -->
<PP_HEADER
generated="Generated using ONCVPSP code by D. R. Hamann"
author="anonymous"
date="171031"
comment=""
element="Re"
pseudo_type="NC"
relativistic="scalar"
is_ultrasoft="F"
is_paw="F"
is_coulomb="F"
has_so="F"
has_wfc="F"
has_gipaw="F"
core_correction="T"
functional="PBE"
z_valence="   15.00"
total_psenergy="  -1.59828474576E+02"
rho_cutoff="   1.37700000000E+01"
l_max="3"
l_local="-1"
mesh_size="   600"
number_of_wfc="4"
number_of_proj="8"/>
<PP_MESH>
<PP_R type="real"  size="600" columns="8">
0.0000    0.0100    0.0200    0.0300    0.0400    0.0500    0.0600    0.0700
0.0800    0.0900    0.1000    0.1100    0.1200    0.1300    0.1400    0.1500
0.1600    0.1700    0.1800    0.1900    0.2000    0.2100    0.2200    0.2300
0.2400    0.2500    0.2600    0.2700    0.2800    0.2900    0.3000    0.3100
0.3200    0.3300    0.3400    0.3500    0.3600    0.3700    0.3800    0.3900
0.4000    0.4100    0.4200    0.4300    0.4400    0.4500    0.4600    0.4700
0.4800    0.4900    0.5000    0.5100    0.5200    0.5300    0.5400    0.5500
0.5600    0.5700    0.5800    0.5900    0.6000    0.6100    0.6200    0.6300
0.6400    0.6500    0.6600    0.6700    0.6800    0.6900    0.7000    0.7100
0.7200    0.7300    0.7400    0.7500    0.7600    0.7700    0.7800    0.7900
0.8000    0.8100    0.8200    0.8300    0.8400    0.8500    0.8600    0.8700
0.8800    0.8900    0.9000    0.9100    0.9200    0.9300    0.9400    0.9500
0.9600    0.9700    0.9800    0.9900    1.0000    1.0100    1.0200    1.0300
1.0400    1.0500    1.0600    1.0700    1.0800    1.0900    1.1000    1.1100
1.1200    1.1300    1.1400    1.1500    1.1600    1.1700    1.1800    1.1900
1.2000    1.2100    1.2200    1.2300    1.2400    1.2500    1.2600    1.2700
1.2800    1.2900    1.3000    1.3100    1.3200    1.3300    1.3400    1.3500
1.3600    1.3700    1.3800    1.3900    1.4000    1.4100    1.4200    1.4300
1.4400    1.4500    1.4600    1.4700    1.4800    1.4900    1.5000    1.5100
1.5200    1.5300    1.5400    1.5500    1.5600    1.5700    1.5800    1.5900
1.6000    1.6100    1.6200    1.6300    1.6400    1.6500    1.6600    1.6700
1.6800    1.6900    1.7000    1.7100    1.7200    1.7300    1.7400    1.7500
1.7600    1.7700    1.7800    1.7900    1.8000    1.8100    1.8200    1.8300
1.8400    1.8500    1.8600    1.8700    1.8800    1.8900    1.9000    1.9100
1.9200    1.9300    1.9400    1.9500    1.9600    1.9700    1.9800    1.9900
2.0000    2.0100    2.0200    2.0300    2.0400    2.0500    2.0600    2.0700
2.0800    2.0900    2.1000    2.1100    2.1200    2.1300    2.1400    2.1500
2.1600    2.1700    2.1800    2.1900    2.2000    2.2100    2.2200    2.2300
2.2400    2.2500    2.2600    2.2700    2.2800    2.2900    2.3000    2.3100
2.3200    2.3300    2.3400    2.3500    2.3600    2.3700    2.3800    2.3900
2.4000    2.4100    2.4200    2.4300    2.4400    2.4500    2.4600    2.4700
2.4800    2.4900    2.5000    2.5100    2.5200    2.5300    2.5400    2.5500
2.5600    2.5700    2.5800    2.5900    2.6000    2.6100    2.6200    2.6300
2.6400    2.6500    2.6600    2.6700    2.6800    2.6900    2.7000    2.7100
2.7200    2.7300    2.7400    2.7500    2.7600    2.7700    2.7800    2.7900
2.8000    2.8100    2.8200    2.8300    2.8400    2.8500    2.8600    2.8700
2.8800    2.8900    2.9000    2.9100    2.9200    2.9300    2.9400    2.9500
2.9600    2.9700    2.9800    2.9900    3.0000    3.0100    3.0200    3.0300
3.0400    3.0500    3.0600    3.0700    3.0800    3.0900    3.1000    3.1100
3.1200    3.1300    3.1400    3.1500    3.1600    3.1700    3.1800    3.1900
3.2000    3.2100    3.2200    3.2300    3.2400    3.2500    3.2600    3.2700
3.2800    3.2900    3.3000    3.3100    3.3200    3.3300    3.3400    3.3500
3.3600    3.3700    3.3800    3.3900    3.4000    3.4100    3.4200    3.4300
3.4400    3.4500    3.4600    3.4700    3.4800    3.4900    3.5000    3.5100
3.5200    3.5300    3.5400    3.5500    3.5600    3.5700    3.5800    3.5900
3.6000    3.6100    3.6200    3.6300    3.6400    3.6500    3.6600    3.6700
3.6800    3.6900    3.7000    3.7100    3.7200    3.7300    3.7400    3.7500
3.7600    3.7700    3.7800    3.7900    3.8000    3.8100    3.8200    3.8300
3.8400    3.8500    3.8600    3.8700    3.8800    3.8900    3.9000    3.9100
3.9200    3.9300    3.9400    3.9500    3.9600    3.9700    3.9800    3.9900
4.0000    4.0100    4.0200    4.0300    4.0400    4.0500    4.0600    4.0700
4.0800    4.0900    4.1000    4.1100    4.1200    4.1300    4.1400    4.1500
4.1600    4.1700    4.1800    4.1900    4.2000    4.2100    4.2200    4.2300
4.2400    4.2500    4.2600    4.2700    4.2800    4.2900    4.3000    4.3100
4.3200    4.3300    4.3400    4.3500    4.3600    4.3700    4.3800    4.3900
4.4000    4.4100    4.4200    4.4300    4.4400    4.4500    4.4600    4.4700
4.4800    4.4900    4.5000    4.5100    4.5200    4.5300    4.5400    4.5500
4.5600    4.5700    4.5800    4.5900    4.6000    4.6100    4.6200    4.6300
4.6400    4.6500    4.6600    4.6700    4.6800    4.6900    4.7000    4.7100
4.7200    4.7300    4.7400    4.7500    4.7600    4.7700    4.7800    4.7900
4.8000    4.8100    4.8200    4.8300    4.8400    4.8500    4.8600    4.8700
4.8800    4.8900    4.9000    4.9100    4.9200    4.9300    4.9400    4.9500
4.9600    4.9700    4.9800    4.9900    5.0000    5.0100    5.0200    5.0300
5.0400    5.0500    5.0600    5.0700    5.0800    5.0900    5.1000    5.1100
5.1200    5.1300    5.1400    5.1500    5.1600    5.1700    5.1800    5.1900
5.2000    5.2100    5.2200    5.2300    5.2400    5.2500    5.2600    5.2700
5.2800    5.2900    5.3000    5.3100    5.3200    5.3300    5.3400    5.3500
5.3600    5.3700    5.3800    5.3900    5.4000    5.4100    5.4200    5.4300
5.4400    5.4500    5.4600    5.4700    5.4800    5.4900    5.5000    5.5100
5.5200    5.5300    5.5400    5.5500    5.5600    5.5700    5.5800    5.5900
5.6000    5.6100    5.6200    5.6300    5.6400    5.6500    5.6600    5.6700
5.6800    5.6900    5.7000    5.7100    5.7200    5.7300    5.7400    5.7500
5.7600    5.7700    5.7800    5.7900    5.8000    5.8100    5.8200    5.8300
5.8400    5.8500    5.8600    5.8700    5.8800    5.8900    5.9000    5.9100
5.9200    5.9300    5.9400    5.9500    5.9600    5.9700    5.9800    5.9900
</PP_R>
<PP_RAB type="real"  size="600" columns="8">
0.0100    0.0100    0.0100    0.0100    0.0100    0.0100    0.0100    0.0100
0.0100    0.0100    0.0100    0.0100    0.0100    0.0100    0.0100    0.0100
0.0100    0.0100    0.0100    0.0100    0.0100    0.0100    0.0100    0.0100
0.0100    0.0100    0.0100    0.0100    0.0100    0.0100    0.0100    0.0100
0.0100    0.0100    0.0100    0.0100    0.0100    0.0100    0.0100    0.0100
0.0100    0.0100    0.0100    0.0100    0.0100    0.0100    0.0100    0.0100
0.0100    0.0100    0.0100    0.0100    0.0100    0.0100    0.0100    0.0100
0.0100    0.0100    0.0100    0.0100    0.0100    0.0100    0.0100    0.0100
0.0100    0.0100    0.0100    0.0100    0.0100    0.0100    0.0100    0.0100
0.0100    0.0100    0.0100    0.0100    0.0100    0.0100    0.0100    0.0100
0.0100    0.0100    0.0100    0.0100    0.0100    0.0100    0.0100    0.0100
0.0100    0.0100    0.0100    0.0100    0.0100    0.0100    0.0100    0.0100
0.0100    0.0100    0.0100    0.0100    0.0100    0.0100    0.0100    0.0100
0.0100    0.0100    0.0100    0.0100    0.0100    0.0100    0.0100    0.0100
0.0100    0.0100    0.0100    0.0100    0.0100    0.0100    0.0100    0.0100
0.0100    0.0100    0.0100    0.0100    0.0100    0.0100    0.0100    0.0100
0.0100    0.0100    0.0100    0.0100    0.0100    0.0100    0.0100    0.0100
0.0100    0.0100    0.0100    0.0100    0.0100    0.0100    0.0100    0.0100
0.0100    0.0100    0.0100    0.0100    0.0100    0.0100    0.0100    0.0100
0.0100    0.0100    0.0100    0.0100    0.0100    0.0100    0.0100    0.0100
0.0100    0.0100    0.0100    0.0100    0.0100    0.0100    0.0100    0.0100
0.0100    0.0100    0.0100    0.0100    0.0100    0.0100    0.0100    0.0100
0.0100    0.0100    0.0100    0.0100    0.0100    0.0100    0.0100    0.0100
0.0100    0.0100    0.0100    0.0100    0.0100    0.0100    0.0100    0.0100
0.0100    0.0100    0.0100    0.0100    0.0100    0.0100    0.0100    0.0100
0.0100    0.0100    0.0100    0.0100    0.0100    0.0100    0.0100    0.0100
0.0100    0.0100    0.0100    0.0100    0.0100    0.0100    0.0100    0.0100
0.0100    0.0100    0.0100    0.0100    0.0100    0.0100    0.0100    0.0100
0.0100    0.0100    0.0100    0.0100    0.0100    0.0100    0.0100    0.0100
0.0100    0.0100    0.0100    0.0100    0.0100    0.0100    0.0100    0.0100
0.0100    0.0100    0.0100    0.0100    0.0100    0.0100    0.0100    0.0100
0.0100    0.0100    0.0100    0.0100    0.0100    0.0100    0.0100    0.0100
0.0100    0.0100    0.0100    0.0100    0.0100    0.0100    0.0100    0.0100
0.0100    0.0100    0.0100    0.0100    0.0100    0.0100    0.0100    0.0100
0.0100    0.0100    0.0100    0.0100    0.0100    0.0100    0.0100    0.0100
0.0100    0.0100    0.0100    0.0100    0.0100    0.0100    0.0100    0.0100
0.0100    0.0100    0.0100    0.0100    0.0100    0.0100    0.0100    0.0100
0.0100    0.0100    0.0100    0.0100    0.0100    0.0100    0.0100    0.0100
0.0100    0.0100    0.0100    0.0100    0.0100    0.0100    0.0100    0.0100
0.0100    0.0100    0.0100    0.0100    0.0100    0.0100    0.0100    0.0100
0.0100    0.0100    0.0100    0.0100    0.0100    0.0100    0.0100    0.0100
0.0100    0.0100    0.0100    0.0100    0.0100    0.0100    0.0100    0.0100
0.0100    0.0100    0.0100    0.0100    0.0100    0.0100    0.0100    0.0100
0.0100    0.0100    0.0100    0.0100    0.0100    0.0100    0.0100    0.0100
0.0100    0.0100    0.0100    0.0100    0.0100    0.0100    0.0100    0.0100
0.0100    0.0100    0.0100    0.0100    0.0100    0.0100    0.0100    0.0100
0.0100    0.0100    0.0100    0.0100    0.0100    0.0100    0.0100    0.0100
0.0100    0.0100    0.0100    0.0100    0.0100    0.0100    0.0100    0.0100
0.0100    0.0100    0.0100    0.0100    0.0100    0.0100    0.0100    0.0100
0.0100    0.0100    0.0100    0.0100    0.0100    0.0100    0.0100    0.0100
0.0100    0.0100    0.0100    0.0100    0.0100    0.0100    0.0100    0.0100
0.0100    0.0100    0.0100    0.0100    0.0100    0.0100    0.0100    0.0100
0.0100    0.0100    0.0100    0.0100    0.0100    0.0100    0.0100    0.0100
0.0100    0.0100    0.0100    0.0100    0.0100    0.0100    0.0100    0.0100
0.0100    0.0100    0.0100    0.0100    0.0100    0.0100    0.0100    0.0100
0.0100    0.0100    0.0100    0.0100    0.0100    0.0100    0.0100    0.0100
0.0100    0.0100    0.0100    0.0100    0.0100    0.0100    0.0100    0.0100
0.0100    0.0100    0.0100    0.0100    0.0100    0.0100    0.0100    0.0100
0.0100    0.0100    0.0100    0.0100    0.0100    0.0100    0.0100    0.0100
0.0100    0.0100    0.0100    0.0100    0.0100    0.0100    0.0100    0.0100
0.0100    0.0100    0.0100    0.0100    0.0100    0.0100    0.0100    0.0100
0.0100    0.0100    0.0100    0.0100    0.0100    0.0100    0.0100    0.0100
0.0100    0.0100    0.0100    0.0100    0.0100    0.0100    0.0100    0.0100
0.0100    0.0100    0.0100    0.0100    0.0100    0.0100    0.0100    0.0100
0.0100    0.0100    0.0100    0.0100    0.0100    0.0100    0.0100    0.0100
0.0100    0.0100    0.0100    0.0100    0.0100    0.0100    0.0100    0.0100
0.0100    0.0100    0.0100    0.0100    0.0100    0.0100    0.0100    0.0100
0.0100    0.0100    0.0100    0.0100    0.0100    0.0100    0.0100    0.0100
0.0100    0.0100    0.0100    0.0100    0.0100    0.0100    0.0100    0.0100
0.0100    0.0100    0.0100    0.0100    0.0100    0.0100    0.0100    0.0100
0.0100    0.0100    0.0100    0.0100    0.0100    0.0100    0.0100    0.0100
0.0100    0.0100    0.0100    0.0100    0.0100    0.0100    0.0100    0.0100
0.0100    0.0100    0.0100    0.0100    0.0100    0.0100    0.0100    0.0100
0.0100    0.0100    0.0100    0.0100    0.0100    0.0100    0.0100    0.0100
0.0100    0.0100    0.0100    0.0100    0.0100    0.0100    0.0100    0.0100
</PP_RAB>
</PP_MESH>
<PP_LOCAL type="real"  size="600" columns="4">
-3.9587708985E+01   -3.9586513648E+01   -3.9582927565E+01   -3.9576950563E+01
-3.9568582354E+01   -3.9557822531E+01   -3.9544670572E+01   -3.9529125843E+01
-3.9511187595E+01   -3.9490854967E+01   -3.9468126988E+01   -3.9443002583E+01
-3.9415480572E+01   -3.9385559677E+01   -3.9353238526E+01   -3.9318515663E+01
-3.9281389553E+01   -3.9241858592E+01   -3.9199921123E+01   -3.9155575441E+01
-3.9108819815E+01   -3.9059652501E+01   -3.9008071765E+01   -3.8954075898E+01
-3.8897663244E+01   -3.8838832226E+01   -3.8777581367E+01   -3.8713909328E+01
-3.8647814933E+01   -3.8579297206E+01   -3.8508355407E+01   -3.8434989063E+01
-3.8359198016E+01   -3.8280982456E+01   -3.8200342964E+01   -3.8117280557E+01
-3.8031796729E+01   -3.7943893495E+01   -3.7853573436E+01   -3.7760839745E+01
-3.7665696271E+01   -3.7568147564E+01   -3.7468198921E+01   -3.7365856429E+01
-3.7261127010E+01   -3.7154018465E+01   -3.7044539514E+01   -3.6932699844E+01
-3.6818510143E+01   -3.6701982144E+01   -3.6583128666E+01   -3.6461963649E+01
-3.6338502190E+01   -3.6212760584E+01   -3.6084756355E+01   -3.5954508293E+01
-3.5822036481E+01   -3.5687362333E+01   -3.5550508622E+01   -3.5411499507E+01
-3.5270360563E+01   -3.5127118807E+01   -3.4981802721E+01   -3.4834442276E+01
-3.4685068955E+01   -3.4533715767E+01   -3.4380417268E+01   -3.4225209575E+01
-3.4068130375E+01   -3.3909218934E+01   -3.3748516102E+01   -3.3586064315E+01
-3.3421907590E+01   -3.3256091519E+01   -3.3088663256E+01   -3.2919671498E+01
-3.2749166465E+01   -3.2577199870E+01   -3.2403824885E+01   -3.2229096099E+01
-3.2053069475E+01   -3.1875802294E+01   -3.1697353098E+01   -3.1517781623E+01
-3.1337148732E+01   -3.1155516337E+01   -3.0972947314E+01   -3.0789505425E+01
-3.0605255218E+01   -3.0420261940E+01   -3.0234591436E+01   -3.0048310047E+01
-2.9861484512E+01   -2.9674181864E+01   -2.9486469320E+01   -2.9298414185E+01
-2.9110083742E+01   -2.8921545151E+01   -2.8732865350E+01   -2.8544110954E+01
-2.8355348159E+01   -2.8166642649E+01   -2.7978059505E+01   -2.7789663120E+01
-2.7601517111E+01   -2.7413684243E+01   -2.7226226353E+01   -2.7039204274E+01
-2.6852677768E+01   -2.6666705461E+01   -2.6481344776E+01   -2.6296651879E+01
-2.6112681620E+01   -2.5929487479E+01   -2.5747121513E+01   -2.5565634311E+01
-2.5385074947E+01   -2.5205490931E+01   -2.5026928175E+01   -2.4849430944E+01
-2.4673041829E+01   -2.4497801702E+01   -2.4323749689E+01   -2.4150923140E+01
-2.3979357600E+01   -2.3809086787E+01   -2.3640142571E+01   -2.3472554958E+01
-2.3306352077E+01   -2.3141560175E+01   -2.2978203610E+01   -2.2816304856E+01
-2.2655884504E+01   -2.2496961281E+01   -2.2339552056E+01   -2.2183671866E+01
-2.2029333936E+01   -2.1876549702E+01   -2.1725328843E+01   -2.1575679305E+01
-2.1427607329E+01   -2.1281117479E+01   -2.1136212660E+01   -2.0992894142E+01
-2.0851161569E+01   -2.0711012968E+01   -2.0572444749E+01   -2.0435451694E+01
-2.0300026946E+01   -2.0166161984E+01   -2.0033846590E+01   -1.9903068823E+01
-1.9773814974E+01   -1.9646069525E+01   -1.9519815066E+01   -1.9395032497E+01
-1.9271700687E+01   -1.9149796320E+01   -1.9029294365E+01   -1.8910166724E+01
-1.8792388435E+01   -1.8675941145E+01   -1.8560815894E+01   -1.8447020558E+01
-1.8334553469E+01   -1.8223384413E+01   -1.8113481020E+01   -1.8004820661E+01
-1.7897381468E+01   -1.7791142266E+01   -1.7686083008E+01   -1.7582183497E+01
-1.7479424377E+01   -1.7377787431E+01   -1.7277255174E+01   -1.7177810794E+01
-1.7079438206E+01   -1.6982122024E+01   -1.6885847522E+01   -1.6790600595E+01
-1.6696367729E+01   -1.6603135955E+01   -1.6510892814E+01   -1.6419626311E+01
-1.6329324871E+01   -1.6239977296E+01   -1.6151572717E+01   -1.6064100556E+01
-1.5977550476E+01   -1.5891912344E+01   -1.5807176192E+01   -1.5723332175E+01
-1.5640370541E+01   -1.5558281597E+01   -1.5477055684E+01   -1.5396683144E+01
-1.5317154308E+01   -1.5238459469E+01   -1.5160588874E+01   -1.5083532707E+01
-1.5007281080E+01   -1.4931824032E+01   -1.4857151523E+01   -1.4783253432E+01
-1.4710119562E+01   -1.4637739643E+01   -1.4566103340E+01   -1.4495200256E+01
-1.4425019946E+01   -1.4355551928E+01   -1.4286785691E+01   -1.4218710708E+01
-1.4151316453E+01   -1.4084592412E+01   -1.4018528094E+01   -1.3953113051E+01
-1.3888336888E+01   -1.3824189277E+01   -1.3760659973E+01   -1.3697738824E+01
-1.3635415786E+01   -1.3573680936E+01   -1.3512524482E+01   -1.3451936774E+01
-1.3391908315E+01   -1.3332429771E+01   -1.3273491978E+01   -1.3215085954E+01
-1.3157202901E+01   -1.3099834213E+01   -1.3042971486E+01   -1.2986606514E+01
-1.2930731301E+01   -1.2875338058E+01   -1.2820419209E+01   -1.2765967389E+01
-1.2711975447E+01   -1.2658436443E+01   -1.2605343649E+01   -1.2552690547E+01
-1.2500470825E+01   -1.2448678373E+01   -1.2397307283E+01   -1.2346351839E+01
-1.2295806518E+01   -1.2245665977E+01   -1.2195925055E+01   -1.2146578760E+01
-1.2097622267E+01   -1.2049050907E+01   -1.2000860161E+01   -1.1953045654E+01
-1.1905603146E+01   -1.1858528523E+01   -1.1811817792E+01   -1.1765467069E+01
-1.1719472575E+01   -1.1673830628E+01   -1.1628537631E+01   -1.1583590071E+01
-1.1538984506E+01   -1.1494717561E+01   -1.1450785923E+01   -1.1407186330E+01
-1.1363915569E+01   -1.1320970468E+01   -1.1278347890E+01   -1.1236044734E+01
-1.1194057922E+01   -1.1152384400E+01   -1.1111021134E+01   -1.1069965107E+01
-1.1029213313E+01   -1.0988762759E+01   -1.0948610460E+01   -1.0908753439E+01
-1.0869188724E+01   -1.0829913350E+01   -1.0790924356E+01   -1.0752218787E+01
-1.0713793691E+01   -1.0675646124E+01   -1.0637773146E+01   -1.0600171827E+01
-1.0562839243E+01   -1.0525772481E+01   -1.0488968642E+01   -1.0452424838E+01
-1.0416138197E+01   -1.0380105864E+01   -1.0344325004E+01   -1.0308792805E+01
-1.0273506477E+01   -1.0238463255E+01   -1.0203660404E+01   -1.0169095219E+01
-1.0134765025E+01   -1.0100667183E+01   -1.0066799088E+01   -1.0033158173E+01
-9.9997419111E+00   -9.9665478134E+00   -9.9335734340E+00   -9.9008163693E+00
-9.8682742591E+00   -9.8359447877E+00   -9.8038256842E+00   -9.7719147227E+00
-9.7402097229E+00   -9.7087085500E+00   -9.6774091143E+00   -9.6463093714E+00
-9.6154073211E+00   -9.5847010074E+00   -9.5541885171E+00   -9.5238679791E+00
-9.4937375637E+00   -9.4637954807E+00   -9.4340399787E+00   -9.4044693435E+00
-9.3750818963E+00   -9.3458759927E+00   -9.3168500206E+00   -9.2880023990E+00
-9.2593315756E+00   -9.2308360258E+00   -9.2025142507E+00   -9.1743647751E+00
-9.1463861462E+00   -9.1185769316E+00   -9.0909357181E+00   -9.0634611097E+00
-9.0361517262E+00   -9.0090062019E+00   -8.9820231842E+00   -8.9552013322E+00
-8.9285393156E+00   -8.9020358138E+00   -8.8756895150E+00   -8.8494991148E+00
-8.8234633161E+00   -8.7975808283E+00   -8.7718503668E+00   -8.7462706524E+00
-8.7208404113E+00   -8.6955583750E+00   -8.6704232801E+00   -8.6454338682E+00
-8.6205888863E+00   -8.5958870871E+00   -8.5713272288E+00   -8.5469080761E+00
-8.5226284003E+00   -8.4984869797E+00   -8.4744826005E+00   -8.4506140570E+00
-8.4268801525E+00   -8.4032796997E+00   -8.3798115213E+00   -8.3564744509E+00
-8.3332673334E+00   -8.3101890256E+00   -8.2872383968E+00   -8.2644143293E+00
-8.2417157191E+00   -8.2191414760E+00   -8.1966905242E+00   -8.1743618027E+00
-8.1521542655E+00   -8.1300668819E+00   -8.1080986367E+00   -8.0862485302E+00
-8.0645155783E+00   -8.0428988114E+00   -8.0213972760E+00   -8.0000100340E+00
-7.9787361648E+00   -7.9575747584E+00   -7.9365249204E+00   -7.9155857720E+00
-7.8947564351E+00   -7.8740360442E+00   -7.8534238126E+00   -7.8329189258E+00
-7.8125205683E+00   -7.7922280572E+00   -7.7720404285E+00   -7.7519567324E+00
-7.7319760976E+00   -7.7120976536E+00   -7.6923203691E+00   -7.6726440284E+00
-7.6530681312E+00   -7.6335921839E+00   -7.6142158646E+00   -7.5949385612E+00
-7.5757592077E+00   -7.5566769254E+00   -7.5376908073E+00   -7.5187997459E+00
-7.5000030532E+00   -7.4813000621E+00   -7.4626900620E+00   -7.4441723699E+00
-7.4257463928E+00   -7.4074113893E+00   -7.3891666865E+00   -7.3710116236E+00
-7.3529455468E+00   -7.3349678102E+00   -7.3170777659E+00   -7.2992747741E+00
-7.2815582005E+00   -7.2639274147E+00   -7.2463817911E+00   -7.2289207181E+00
-7.2115435860E+00   -7.1942497914E+00   -7.1770387364E+00   -7.1599098291E+00
-7.1428624825E+00   -7.1258961158E+00   -7.1090101534E+00   -7.0922040252E+00
-7.0754771666E+00   -7.0588290181E+00   -7.0422590257E+00   -7.0257666403E+00
-7.0093513183E+00   -6.9930125207E+00   -6.9767497139E+00   -6.9605623692E+00
-6.9444499624E+00   -6.9284119747E+00   -6.9124478918E+00   -6.8965572040E+00
-6.8807394065E+00   -6.8649939990E+00   -6.8493204858E+00   -6.8337183758E+00
-6.8181871822E+00   -6.8027264226E+00   -6.7873356192E+00   -6.7720142983E+00
-6.7567619904E+00   -6.7415782306E+00   -6.7264625577E+00   -6.7114145148E+00
-6.6964336493E+00   -6.6815195124E+00   -6.6666716591E+00   -6.6518896488E+00
-6.6371730445E+00   -6.6225214132E+00   -6.6079343254E+00   -6.5934113558E+00
-6.5789520826E+00   -6.5645560878E+00   -6.5502229568E+00   -6.5359522789E+00
-6.5217436468E+00   -6.5075966568E+00   -6.4935109087E+00   -6.4794860057E+00
-6.4655215545E+00   -6.4516171651E+00   -6.4377724509E+00   -6.4239870286E+00
-6.4102605182E+00   -6.3965925427E+00   -6.3829827288E+00   -6.3694307058E+00
-6.3559361066E+00   -6.3424985670E+00   -6.3291177259E+00   -6.3157932252E+00
-6.3025247098E+00   -6.2893118276E+00   -6.2761542296E+00   -6.2630515695E+00
-6.2500035039E+00   -6.2370096924E+00   -6.2240697974E+00   -6.2111834838E+00
-6.1983504197E+00   -6.1855702757E+00   -6.1728427251E+00   -6.1601674440E+00
-6.1475441111E+00   -6.1349724075E+00   -6.1224520174E+00   -6.1099826271E+00
-6.0975639257E+00   -6.0851956048E+00   -6.0728773584E+00   -6.0606088829E+00
-6.0483898775E+00   -6.0362200435E+00   -6.0240990847E+00   -6.0120267073E+00
-6.0000026197E+00   -5.9880265328E+00   -5.9760981598E+00   -5.9642172161E+00
-5.9523834194E+00   -5.9405964895E+00   -5.9288561487E+00   -5.9171621213E+00
-5.9055141337E+00   -5.8939119146E+00   -5.8823551948E+00   -5.8708437071E+00
-5.8593771866E+00   -5.8479553702E+00   -5.8365779970E+00   -5.8252448082E+00
-5.8139555468E+00   -5.8027099580E+00   -5.7915077889E+00   -5.7803487883E+00
-5.7692327073E+00   -5.7581592988E+00   -5.7471283175E+00   -5.7361395200E+00
-5.7251926649E+00   -5.7142875123E+00   -5.7034238246E+00   -5.6926013656E+00
-5.6818199011E+00   -5.6710791986E+00   -5.6603790274E+00   -5.6497191584E+00
-5.6390993644E+00   -5.6285194199E+00   -5.6179791009E+00   -5.6074781853E+00
-5.5970164525E+00   -5.5865936836E+00   -5.5762096613E+00   -5.5658641700E+00
-5.5555569956E+00   -5.5452879256E+00   -5.5350567491E+00   -5.5248632568E+00
-5.5147072408E+00   -5.5045884948E+00   -5.4945068141E+00   -5.4844619953E+00
-5.4744538367E+00   -5.4644821379E+00   -5.4545467001E+00   -5.4446473257E+00
-5.4347838189E+00   -5.4249559850E+00   -5.4151636309E+00   -5.4054065647E+00
-5.3956845961E+00   -5.3859975360E+00   -5.3763451967E+00   -5.3667273919E+00
-5.3571439366E+00   -5.3475946471E+00   -5.3380793410E+00   -5.3285978373E+00
-5.3191499560E+00   -5.3097355188E+00   -5.3003543482E+00   -5.2910062684E+00
-5.2816911045E+00   -5.2724086830E+00   -5.2631588315E+00   -5.2539413789E+00
-5.2447561554E+00   -5.2356029920E+00   -5.2264817214E+00   -5.2173921771E+00
-5.2083341938E+00   -5.1993076074E+00   -5.1903122550E+00   -5.1813479748E+00
-5.1724146060E+00   -5.1635119890E+00   -5.1546399654E+00   -5.1457983775E+00
-5.1369870692E+00   -5.1282058851E+00   -5.1194546711E+00   -5.1107332739E+00
-5.1020415414E+00   -5.0933793225E+00   -5.0847464671E+00   -5.0761428263E+00
-5.0675682518E+00   -5.0590225968E+00   -5.0505057151E+00   -5.0420174617E+00
-5.0335576924E+00   -5.0251262641E+00   -5.0167230347E+00   -5.0083478629E+00
</PP_LOCAL>
<PP_NONLOCAL>
<PP_BETA.1
type="real"
size="600"
columns="4"
index="1"
angular_momentum="0"
cutoff_radius_index=" 208"
cutoff_radius="    2.0700000000E+00" >
1.7432000288E-10    5.3502283483E-02    1.0694789402E-01    1.6027998997E-01
2.1344139586E-01    2.6637444437E-01    3.1902082876E-01    3.7132146915E-01
4.2321639575E-01    4.7464465185E-01    5.2554421944E-01    5.7585196952E-01
6.2550363950E-01    6.7443383915E-01    7.2257608652E-01    7.6986287480E-01
8.1622577070E-01    8.6159554443E-01    9.0590233106E-01    9.4907582247E-01
9.9104548903E-01    1.0317408292E+00    1.0710916454E+00    1.1090283437E+00
1.1454822551E+00    1.1803859748E+00    1.2136737172E+00    1.2452816820E+00
1.2751484292E+00    1.3032152575E+00    1.3294265841E+00    1.3537303191E+00
1.3760782342E+00    1.3964263176E+00    1.4147351144E+00    1.4309700461E+00
1.4451017080E+00    1.4571061378E+00    1.4669650554E+00    1.4746660683E+00
1.4802028414E+00    1.4835752282E+00    1.4847893612E+00    1.4838577014E+00
1.4807990433E+00    1.4756384769E+00    1.4684073059E+00    1.4591429209E+00
1.4478886312E+00    1.4346934531E+00    1.4196118586E+00    1.4027034862E+00
1.3840328147E+00    1.3636688054E+00    1.3416845138E+00    1.3181566752E+00
1.2931652678E+00    1.2667930585E+00    1.2391251335E+00    1.2102484201E+00
1.1802512036E+00    1.1492226434E+00    1.1172522941E+00    1.0844296347E+00
1.0508436115E+00    1.0165821988E+00    9.8173198094E-01    9.4637776015E-01
9.1060219347E-01    8.7448546213E-01    8.3810497602E-01    8.0153511586E-01
7.6484701502E-01    7.2810838243E-01    6.9138336773E-01    6.5473246911E-01
6.1821248396E-01    5.8187650178E-01    5.4577393843E-01    5.0995061020E-01
4.7444884580E-01    4.3930763384E-01    4.0456280300E-01    3.7024723157E-01
3.3639108298E-01    3.0302206319E-01    2.7016569595E-01    2.3784561147E-01
2.0608384404E-01    1.7490113381E-01    1.4431722819E-01    1.1435117810E-01
8.5021624375E-02    5.6347069997E-02    2.8346133665E-02    1.0377807096E-03
-2.5558472468E-02   -5.1422383889E-02   -7.6532844482E-02   -1.0086777221E-01
-1.2440404401E-01   -1.4711746723E-01   -1.6898279171E-01   -1.8997376314E-01
-2.1006321777E-01   -2.2922321788E-01   -2.4742522714E-01   -2.6464032401E-01
-2.8083945119E-01   -2.9599369843E-01   -3.1007461547E-01   -3.2305455153E-01
-3.3490701729E-01   -3.4560706497E-01   -3.5513168177E-01   -3.6346019164E-01
-3.7057466017E-01   -3.7646029722E-01   -3.8110585192E-01   -3.8450399440E-01
-3.8665167909E-01   -3.8755048393E-01   -3.8720692068E-01   -3.8563271133E-01
-3.8284502591E-01   -3.7886667772E-01   -3.7372627193E-01   -3.6745830458E-01
-3.6010320872E-01   -3.5170734589E-01   -3.4232294110E-01   -3.3200796012E-01
-3.2082592913E-01   -3.0884569657E-01   -2.9614113827E-01   -2.8279080771E-01
-2.6887753307E-01   -2.5448796448E-01   -2.3971207480E-01   -2.2464261760E-01
-2.0937454752E-01   -1.9400440761E-01   -1.7862968920E-01   -1.6334817056E-01
-1.4825723981E-01   -1.3345320936E-01   -1.1903062774E-01   -1.0508159610E-01
-9.1695095666E-02   -7.8956333492E-02   -6.6946112127E-02   -5.5740230897E-02
-4.5408923586E-02   -3.6016339480E-02   -2.7620072523E-02   -2.0270743530E-02
-1.4016101895E-02   -8.8791259017E-03   -4.8696358961E-03   -2.0976486494E-03
-5.7744111481E-04    1.2216547348E-05    7.8327375604E-05   -1.2255450527E-05
-2.7041140324E-05    2.4005101189E-06    4.8260232076E-06    3.8099307495E-08
7.0567771395E-08    0.0000000000E+00    0.0000000000E+00    0.0000000000E+00
0.0000000000E+00    0.0000000000E+00    0.0000000000E+00    0.0000000000E+00
0.0000000000E+00    0.0000000000E+00    0.0000000000E+00    0.0000000000E+00
0.0000000000E+00    0.0000000000E+00    0.0000000000E+00    0.0000000000E+00
0.0000000000E+00    0.0000000000E+00    0.0000000000E+00    0.0000000000E+00
0.0000000000E+00    0.0000000000E+00    0.0000000000E+00    0.0000000000E+00
0.0000000000E+00    0.0000000000E+00    0.0000000000E+00    0.0000000000E+00
0.0000000000E+00    0.0000000000E+00    0.0000000000E+00    0.0000000000E+00
0.0000000000E+00    0.0000000000E+00    0.0000000000E+00    0.0000000000E+00