<UPF version="2.0.1">
<PP_INFO>
NOTE!!!!
This file is trimmed with a mesh size of 600 from the original version.
Trimming performed at 2023-03-31 09:10:05.066848 by trim_upf.py version 0.1.0

This pseudopotential file has been produced using the code
ONCVPSP  (Optimized Norm-Conservinng Vanderbilt PSeudopotential)
scalar-relativistic version 3.3.0 08/16/2017 by D. R. Hamann
The code is available through a link at URL www.mat-simresearch.com.
Documentation with the package provides a full discription of the
input data below.
While it is not required under the terms of the GNU GPL, it is
suggested that you cite D. R. Hamann, Phys. Rev. B 88, 085117 (2013)
in any publication using these pseudopotentials.
<PP_INPUTFILE>
# ATOM AND REFERENCE CONFIGURATION
# atsym  z   nc   nv     iexc    psfile
Rh 45.00    6    4       4      upf
#
#   n    l    f        energy (Ha)
1    0    2.00
2    0    2.00
2    1    6.00
3    0    2.00
3    1    6.00
3    2   10.00
4    0    2.00
4    1    6.00
4    2    8.00
5    0    1.00
#
# PSEUDOPOTENTIAL AND OPTIMIZATION
# lmax
2
#
#   l,   rc,      ep,       ncon, nbas, qcut
0   1.40000  -3.03163    4    7   9.40000
1   1.40000  -1.85294    4    7   9.40000
2   1.35000  -0.21830    4    7   9.40000
#
# LOCAL POTENTIAL
# lloc, lpopt,  rc(5),   dvloc0
4    5   1.30000      0.00000
#
# VANDERBILT-KLEINMAN-BYLANDER PROJECTORs
# l, nproj, debl
0    2   2.87360
1    2   1.82168
2    2   1.00000
#
# MODEL CORE CHARGE
# icmod, fcfact, rcfact
3   7.00000   1.23000
#
# LOG DERIVATIVE ANALYSIS
# epsh1, epsh2, depsh
-12.00   12.00    0.02
#
# OUTPUT GRID
# rlmax, drl
6.00    0.01
#
# TEST CONFIGURATIONS
# ncnf
0
# nvcnf
#   n    l    f
</PP_INPUTFILE>
</PP_INFO>
<!--                               -->
<!-- END OF HUMAN READABLE SECTION -->
<!--                               -->
<PP_HEADER
generated="Generated using ONCVPSP code by D. R. Hamann"
author="anonymous"
date="171031"
comment=""
element="Rh"
pseudo_type="NC"
relativistic="scalar"
is_ultrasoft="F"
is_paw="F"
is_coulomb="F"
has_so="F"
has_wfc="F"
has_gipaw="F"
core_correction="T"
functional="PBE"
z_valence="   17.00"
total_psenergy="  -2.21324871410E+02"
rho_cutoff="   1.56700000000E+01"
l_max="2"
l_local="-1"
mesh_size="   600"
number_of_wfc="4"
number_of_proj="6"/>
<PP_MESH>
<PP_R type="real"  size="600" columns="8">
0.0000    0.0100    0.0200    0.0300    0.0400    0.0500    0.0600    0.0700
0.0800    0.0900    0.1000    0.1100    0.1200    0.1300    0.1400    0.1500
0.1600    0.1700    0.1800    0.1900    0.2000    0.2100    0.2200    0.2300
0.2400    0.2500    0.2600    0.2700    0.2800    0.2900    0.3000    0.3100
0.3200    0.3300    0.3400    0.3500    0.3600    0.3700    0.3800    0.3900
0.4000    0.4100    0.4200    0.4300    0.4400    0.4500    0.4600    0.4700
0.4800    0.4900    0.5000    0.5100    0.5200    0.5300    0.5400    0.5500
0.5600    0.5700    0.5800    0.5900    0.6000    0.6100    0.6200    0.6300
0.6400    0.6500    0.6600    0.6700    0.6800    0.6900    0.7000    0.7100
0.7200    0.7300    0.7400    0.7500    0.7600    0.7700    0.7800    0.7900
0.8000    0.8100    0.8200    0.8300    0.8400    0.8500    0.8600    0.8700
0.8800    0.8900    0.9000    0.9100    0.9200    0.9300    0.9400    0.9500
0.9600    0.9700    0.9800    0.9900    1.0000    1.0100    1.0200    1.0300
1.0400    1.0500    1.0600    1.0700    1.0800    1.0900    1.1000    1.1100
1.1200    1.1300    1.1400    1.1500    1.1600    1.1700    1.1800    1.1900
1.2000    1.2100    1.2200    1.2300    1.2400    1.2500    1.2600    1.2700
1.2800    1.2900    1.3000    1.3100    1.3200    1.3300    1.3400    1.3500
1.3600    1.3700    1.3800    1.3900    1.4000    1.4100    1.4200    1.4300
1.4400    1.4500    1.4600    1.4700    1.4800    1.4900    1.5000    1.5100
1.5200    1.5300    1.5400    1.5500    1.5600    1.5700    1.5800    1.5900
1.6000    1.6100    1.6200    1.6300    1.6400    1.6500    1.6600    1.6700
1.6800    1.6900    1.7000    1.7100    1.7200    1.7300    1.7400    1.7500
1.7600    1.7700    1.7800    1.7900    1.8000    1.8100    1.8200    1.8300
1.8400    1.8500    1.8600    1.8700    1.8800    1.8900    1.9000    1.9100
1.9200    1.9300    1.9400    1.9500    1.9600    1.9700    1.9800    1.9900
2.0000    2.0100    2.0200    2.0300    2.0400    2.0500    2.0600    2.0700
2.0800    2.0900    2.1000    2.1100    2.1200    2.1300    2.1400    2.1500
2.1600    2.1700    2.1800    2.1900    2.2000    2.2100    2.2200    2.2300
2.2400    2.2500    2.2600    2.2700    2.2800    2.2900    2.3000    2.3100
2.3200    2.3300    2.3400    2.3500    2.3600    2.3700    2.3800    2.3900
2.4000    2.4100    2.4200    2.4300    2.4400    2.4500    2.4600    2.4700
2.4800    2.4900    2.5000    2.5100    2.5200    2.5300    2.5400    2.5500
2.5600    2.5700    2.5800    2.5900    2.6000    2.6100    2.6200    2.6300
2.6400    2.6500    2.6600    2.6700    2.6800    2.6900    2.7000    2.7100
2.7200    2.7300    2.7400    2.7500    2.7600    2.7700    2.7800    2.7900
2.8000    2.8100    2.8200    2.8300    2.8400    2.8500    2.8600    2.8700
2.8800    2.8900    2.9000    2.9100    2.9200    2.9300    2.9400    2.9500
2.9600    2.9700    2.9800    2.9900    3.0000    3.0100    3.0200    3.0300
3.0400    3.0500    3.0600    3.0700    3.0800    3.0900    3.1000    3.1100
3.1200    3.1300    3.1400    3.1500    3.1600    3.1700    3.1800    3.1900
3.2000    3.2100    3.2200    3.2300    3.2400    3.2500    3.2600    3.2700
3.2800    3.2900    3.3000    3.3100    3.3200    3.3300    3.3400    3.3500
3.3600    3.3700    3.3800    3.3900    3.4000    3.4100    3.4200    3.4300
3.4400    3.4500    3.4600    3.4700    3.4800    3.4900    3.5000    3.5100
3.5200    3.5300    3.5400    3.5500    3.5600    3.5700    3.5800    3.5900
3.6000    3.6100    3.6200    3.6300    3.6400    3.6500    3.6600    3.6700
3.6800    3.6900    3.7000    3.7100    3.7200    3.7300    3.7400    3.7500
3.7600    3.7700    3.7800    3.7900    3.8000    3.8100    3.8200    3.8300
3.8400    3.8500    3.8600    3.8700    3.8800    3.8900    3.9000    3.9100
3.9200    3.9300    3.9400    3.9500    3.9600    3.9700    3.9800    3.9900
4.0000    4.0100    4.0200    4.0300    4.0400    4.0500    4.0600    4.0700
4.0800    4.0900    4.1000    4.1100    4.1200    4.1300    4.1400    4.1500
4.1600    4.1700    4.1800    4.1900    4.2000    4.2100    4.2200    4.2300
4.2400    4.2500    4.2600    4.2700    4.2800    4.2900    4.3000    4.3100
4.3200    4.3300    4.3400    4.3500    4.3600    4.3700    4.3800    4.3900
4.4000    4.4100    4.4200    4.4300    4.4400    4.4500    4.4600    4.4700
4.4800    4.4900    4.5000    4.5100    4.5200    4.5300    4.5400    4.5500
4.5600    4.5700    4.5800    4.5900    4.6000    4.6100    4.6200    4.6300
4.6400    4.6500    4.6600    4.6700    4.6800    4.6900    4.7000    4.7100
4.7200    4.7300    4.7400    4.7500    4.7600    4.7700    4.7800    4.7900
4.8000    4.8100    4.8200    4.8300    4.8400    4.8500    4.8600    4.8700
4.8800    4.8900    4.9000    4.9100    4.9200    4.9300    4.9400    4.9500
4.9600    4.9700    4.9800    4.9900    5.0000    5.0100    5.0200    5.0300
5.0400    5.0500    5.0600    5.0700    5.0800    5.0900    5.1000    5.1100
5.1200    5.1300    5.1400    5.1500    5.1600    5.1700    5.1800    5.1900
5.2000    5.2100    5.2200    5.2300    5.2400    5.2500    5.2600    5.2700
5.2800    5.2900    5.3000    5.3100    5.3200    5.3300    5.3400    5.3500
5.3600    5.3700    5.3800    5.3900    5.4000    5.4100    5.4200    5.4300
5.4400    5.4500    5.4600    5.4700    5.4800    5.4900    5.5000    5.5100
5.5200    5.5300    5.5400    5.5500    5.5600    5.5700    5.5800    5.5900
5.6000    5.6100    5.6200    5.6300    5.6400    5.6500    5.6600    5.6700
5.6800    5.6900    5.7000    5.7100    5.7200    5.7300    5.7400    5.7500
5.7600    5.7700    5.7800    5.7900    5.8000    5.8100    5.8200    5.8300
5.8400    5.8500    5.8600    5.8700    5.8800    5.8900    5.9000    5.9100
5.9200    5.9300    5.9400    5.9500    5.9600    5.9700    5.9800    5.9900
</PP_R>
<PP_RAB type="real"  size="600" columns="8">
0.0100    0.0100    0.0100    0.0100    0.0100    0.0100    0.0100    0.0100
0.0100    0.0100    0.0100    0.0100    0.0100    0.0100    0.0100    0.0100
0.0100    0.0100    0.0100    0.0100    0.0100    0.0100    0.0100    0.0100
0.0100    0.0100    0.0100    0.0100    0.0100    0.0100    0.0100    0.0100
0.0100    0.0100    0.0100    0.0100    0.0100    0.0100    0.0100    0.0100
0.0100    0.0100    0.0100    0.0100    0.0100    0.0100    0.0100    0.0100
0.0100    0.0100    0.0100    0.0100    0.0100    0.0100    0.0100    0.0100
0.0100    0.0100    0.0100    0.0100    0.0100    0.0100    0.0100    0.0100
0.0100    0.0100    0.0100    0.0100    0.0100    0.0100    0.0100    0.0100
0.0100    0.0100    0.0100    0.0100    0.0100    0.0100    0.0100    0.0100
0.0100    0.0100    0.0100    0.0100    0.0100    0.0100    0.0100    0.0100
0.0100    0.0100    0.0100    0.0100    0.0100    0.0100    0.0100    0.0100
0.0100    0.0100    0.0100    0.0100    0.0100    0.0100    0.0100    0.0100
0.0100    0.0100    0.0100    0.0100    0.0100    0.0100    0.0100    0.0100
0.0100    0.0100    0.0100    0.0100    0.0100    0.0100    0.0100    0.0100
0.0100    0.0100    0.0100    0.0100    0.0100    0.0100    0.0100    0.0100
0.0100    0.0100    0.0100    0.0100    0.0100    0.0100    0.0100    0.0100
0.0100    0.0100    0.0100    0.0100    0.0100    0.0100    0.0100    0.0100
0.0100    0.0100    0.0100    0.0100    0.0100    0.0100    0.0100    0.0100
0.0100    0.0100    0.0100    0.0100    0.0100    0.0100    0.0100    0.0100
0.0100    0.0100    0.0100    0.0100    0.0100    0.0100    0.0100    0.0100
0.0100    0.0100    0.0100    0.0100    0.0100    0.0100    0.0100    0.0100
0.0100    0.0100    0.0100    0.0100    0.0100    0.0100    0.0100    0.0100
0.0100    0.0100    0.0100    0.0100    0.0100    0.0100    0.0100    0.0100
0.0100    0.0100    0.0100    0.0100    0.0100    0.0100    0.0100    0.0100
0.0100    0.0100    0.0100    0.0100    0.0100    0.0100    0.0100    0.0100
0.0100    0.0100    0.0100    0.0100    0.0100    0.0100    0.0100    0.0100
0.0100    0.0100    0.0100    0.0100    0.0100    0.0100    0.0100    0.0100
0.0100    0.0100    0.0100    0.0100    0.0100    0.0100    0.0100    0.0100
0.0100    0.0100    0.0100    0.0100    0.0100    0.0100    0.0100    0.0100
0.0100    0.0100    0.0100    0.0100    0.0100    0.0100    0.0100    0.0100
0.0100    0.0100    0.0100    0.0100    0.0100    0.0100    0.0100    0.0100
0.0100    0.0100    0.0100    0.0100    0.0100    0.0100    0.0100    0.0100
0.0100    0.0100    0.0100    0.0100    0.0100    0.0100    0.0100    0.0100
0.0100    0.0100    0.0100    0.0100    0.0100    0.0100    0.0100    0.0100
0.0100    0.0100    0.0100    0.0100    0.0100    0.0100    0.0100    0.0100
0.0100    0.0100    0.0100    0.0100    0.0100    0.0100    0.0100    0.0100
0.0100    0.0100    0.0100    0.0100    0.0100    0.0100    0.0100    0.0100
0.0100    0.0100    0.0100    0.0100    0.0100    0.0100    0.0100    0.0100
0.0100    0.0100    0.0100    0.0100    0.0100    0.0100    0.0100    0.0100
0.0100    0.0100    0.0100    0.0100    0.0100    0.0100    0.0100    0.0100
0.0100    0.0100    0.0100    0.0100    0.0100    0.0100    0.0100    0.0100
0.0100    0.0100    0.0100    0.0100    0.0100    0.0100    0.0100    0.0100
0.0100    0.0100    0.0100    0.0100    0.0100    0.0100    0.0100    0.0100
0.0100    0.0100    0.0100    0.0100    0.0100    0.0100    0.0100    0.0100
0.0100    0.0100    0.0100    0.0100    0.0100    0.0100    0.0100    0.0100
0.0100    0.0100    0.0100    0.0100    0.0100    0.0100    0.0100    0.0100
0.0100    0.0100    0.0100    0.0100    0.0100    0.0100    0.0100    0.0100
0.0100    0.0100    0.0100    0.0100    0.0100    0.0100    0.0100    0.0100
0.0100    0.0100    0.0100    0.0100    0.0100    0.0100    0.0100    0.0100
0.0100    0.0100    0.0100    0.0100    0.0100    0.0100    0.0100    0.0100
0.0100    0.0100    0.0100    0.0100    0.0100    0.0100    0.0100    0.0100
0.0100    0.0100    0.0100    0.0100    0.0100    0.0100    0.0100    0.0100
0.0100    0.0100    0.0100    0.0100    0.0100    0.0100    0.0100    0.0100
0.0100    0.0100    0.0100    0.0100    0.0100    0.0100    0.0100    0.0100
0.0100    0.0100    0.0100    0.0100    0.0100    0.0100    0.0100    0.0100
0.0100    0.0100    0.0100    0.0100    0.0100    0.0100    0.0100    0.0100
0.0100    0.0100    0.0100    0.0100    0.0100    0.0100    0.0100    0.0100
0.0100    0.0100    0.0100    0.0100    0.0100    0.0100    0.0100    0.0100
0.0100    0.0100    0.0100    0.0100    0.0100    0.0100    0.0100    0.0100
0.0100    0.0100    0.0100    0.0100    0.0100    0.0100    0.0100    0.0100
0.0100    0.0100    0.0100    0.0100    0.0100    0.0100    0.0100    0.0100
0.0100    0.0100    0.0100    0.0100    0.0100    0.0100    0.0100    0.0100
0.0100    0.0100    0.0100    0.0100    0.0100    0.0100    0.0100    0.0100
0.0100    0.0100    0.0100    0.0100    0.0100    0.0100    0.0100    0.0100
0.0100    0.0100    0.0100    0.0100    0.0100    0.0100    0.0100    0.0100
0.0100    0.0100    0.0100    0.0100    0.0100    0.0100    0.0100    0.0100
0.0100    0.0100    0.0100    0.0100    0.0100    0.0100    0.0100    0.0100
0.0100    0.0100    0.0100    0.0100    0.0100    0.0100    0.0100    0.0100
0.0100    0.0100    0.0100    0.0100    0.0100    0.0100    0.0100    0.0100
0.0100    0.0100    0.0100    0.0100    0.0100    0.0100    0.0100    0.0100
0.0100    0.0100    0.0100    0.0100    0.0100    0.0100    0.0100    0.0100
0.0100    0.0100    0.0100    0.0100    0.0100    0.0100    0.0100    0.0100
0.0100    0.0100    0.0100    0.0100    0.0100    0.0100    0.0100    0.0100
0.0100    0.0100    0.0100    0.0100    0.0100    0.0100    0.0100    0.0100
</PP_RAB>
</PP_MESH>
<PP_LOCAL type="real"  size="600" columns="4">
-5.2908470998E+01   -5.2906330268E+01   -5.2899909182E+01   -5.2889211768E+01
-5.2874244595E+01   -5.2855016668E+01   -5.2831539273E+01   -5.2803825762E+01
-5.2771891315E+01   -5.2735752663E+01   -5.2695427790E+01   -5.2650935627E+01
-5.2602295721E+01   -5.2549527921E+01   -5.2492652050E+01   -5.2431687598E+01
-5.2366653426E+01   -5.2297567488E+01   -5.2224446579E+01   -5.2147306100E+01
-5.2066159864E+01   -5.1981019918E+01   -5.1891896400E+01   -5.1798797423E+01
-5.1701728990E+01   -5.1600694934E+01   -5.1495696887E+01   -5.1386734269E+01
-5.1273804308E+01   -5.1156902077E+01   -5.1036020549E+01   -5.0911150681E+01
-5.0782281502E+01   -5.0649400233E+01   -5.0512492406E+01   -5.0371542018E+01
-5.0226531683E+01   -5.0077442806E+01   -4.9924255774E+01   -4.9766950161E+01
-4.9605504945E+01   -4.9439898745E+01   -4.9270110075E+01   -4.9096117616E+01
-4.8917900502E+01   -4.8735438632E+01   -4.8548712996E+01   -4.8357706031E+01
-4.8162401987E+01   -4.7962787329E+01   -4.7758851155E+01   -4.7550585645E+01
-4.7337986536E+01   -4.7121053622E+01   -4.6899791290E+01   -4.6674209072E+01
-4.6444322234E+01   -4.6210152379E+01   -4.5971728067E+01   -4.5729085442E+01
-4.5482268845E+01   -4.5231331413E+01   -4.4976335623E+01   -4.4717353772E+01
-4.4454468373E+01   -4.4187772425E+01   -4.3917369550E+01   -4.3643373975E+01
-4.3365910340E+01   -4.3085113335E+01   -4.2801127160E+01   -4.2514104841E+01
-4.2224207395E+01   -4.1931602901E+01   -4.1636465497E+01   -4.1338974351E+01
-4.1039312631E+01   -4.0737666526E+01   -4.0434224329E+01   -4.0129175619E+01
-3.9822710546E+01   -3.9515019226E+01   -3.9206291250E+01   -3.8896715282E+01
-3.8586478755E+01   -3.8275767623E+01   -3.7964766171E+01   -3.7653656860E+01
-3.7342620177E+01   -3.7031834499E+01   -3.6721475940E+01   -3.6411718181E+01
-3.6102732284E+01   -3.5794686470E+01   -3.5487745881E+01   -3.5182072315E+01
-3.4877823946E+01   -3.4575155027E+01   -3.4274215588E+01   -3.3975151133E+01
-3.3678102339E+01   -3.3383204766E+01   -3.3090588580E+01   -3.2800378301E+01
-3.2512692561E+01   -3.2227643892E+01   -3.1945338540E+01   -3.1665876298E+01
-3.1389350364E+01   -3.1115847227E+01   -3.0845446562E+01   -3.0578221160E+01
-3.0314236858E+01   -3.0053552496E+01   -2.9796219881E+01   -2.9542283757E+01
-2.9291781790E+01   -2.9044744552E+01   -2.8801195511E+01   -2.8561151023E+01
-2.8324620320E+01   -2.8091605506E+01   -2.7862101541E+01   -2.7636096225E+01
-2.7413570181E+01   -2.7194496830E+01   -2.6978842362E+01   -2.6766565694E+01
-2.6557618455E+01   -2.6351944867E+01   -2.6149481990E+01   -2.5950158786E+01
-2.5753897601E+01   -2.5560617920E+01   -2.5370239832E+01   -2.5182686367E+01
-2.4997883163E+01   -2.4815758594E+01   -2.4636244136E+01   -2.4459273562E+01
-2.4284785932E+01   -2.4112730572E+01   -2.3943069823E+01   -2.3775780329E+01
-2.3610821233E+01   -2.3448132439E+01   -2.3287663674E+01   -2.3129369623E+01
-2.2973204104E+01   -2.2819122871E+01   -2.2667083288E+01   -2.2517044138E+01
-2.2368965576E+01   -2.2222809092E+01   -2.2078537437E+01   -2.1936114562E+01
-2.1795505554E+01   -2.1656676574E+01   -2.1519594797E+01   -2.1384228347E+01
-2.1250546244E+01   -2.1118518344E+01   -2.0988115288E+01   -2.0859308449E+01
-2.0732069886E+01   -2.0606372299E+01   -2.0482188990E+01   -2.0359493823E+01
-2.0238261197E+01   -2.0118466010E+01   -2.0000083639E+01   -1.9883089914E+01
-1.9767461103E+01   -1.9653173896E+01   -1.9540205394E+01   -1.9428533098E+01
-1.9318134903E+01   -1.9208989096E+01   -1.9101074352E+01   -1.8994369733E+01
-1.8888854688E+01   -1.8784509056E+01   -1.8681313069E+01   -1.8579247350E+01
-1.8478292919E+01   -1.8378431194E+01   -1.8279643993E+01   -1.8181913535E+01
-1.8085222438E+01   -1.7989553723E+01   -1.7894890807E+01   -1.7801217502E+01
-1.7708518011E+01   -1.7616776924E+01   -1.7525979208E+01   -1.7436110200E+01
-1.7347155601E+01   -1.7259101461E+01   -1.7171934173E+01   -1.7085640456E+01
-1.7000207348E+01   -1.6915622189E+01   -1.6831872610E+01   -1.6748946516E+01
-1.6666832078E+01   -1.6585517712E+01   -1.6504992075E+01   -1.6425244042E+01
-1.6346262702E+01   -1.6268037342E+01   -1.6190557439E+01   -1.6113812645E+01
-1.6037792784E+01   -1.5962487842E+01   -1.5887887957E+01   -1.5813983417E+01
-1.5740764654E+01   -1.5668222237E+01   -1.5596346876E+01   -1.5525129412E+01
-1.5454560821E+01   -1.5384632210E+01   -1.5315334821E+01   -1.5246660028E+01
-1.5178599339E+01   -1.5111144398E+01   -1.5044286986E+01   -1.4978019022E+01
-1.4912332564E+01   -1.4847219814E+01   -1.4782673117E+01   -1.4718684955E+01
-1.4655247935E+01   -1.4592354810E+01   -1.4529998540E+01   -1.4468172245E+01
-1.4406869015E+01   -1.4346082347E+01   -1.4285805656E+01   -1.4226032799E+01
-1.4166755281E+01   -1.4107965490E+01   -1.4049656590E+01   -1.3991826943E+01
-1.3934474506E+01   -1.3877596002E+01   -1.3821183156E+01   -1.3765227833E+01
-1.3709722637E+01   -1.3654662749E+01   -1.3600043238E+01   -1.3545859179E+01
-1.3492105174E+01   -1.3438776113E+01   -1.3385866964E+01   -1.3333372809E+01
-1.3281288775E+01   -1.3229610065E+01   -1.3178331973E+01   -1.3127449859E+01
-1.3076959153E+01   -1.3026855358E+01   -1.2977134041E+01   -1.2927790841E+01
-1.2878821460E+01   -1.2830221666E+01   -1.2781987291E+01   -1.2734114229E+01
-1.2686598436E+01   -1.2639435926E+01   -1.2592622774E+01   -1.2546155114E+01
-1.2500029133E+01   -1.2454241078E+01   -1.2408787248E+01   -1.2363663997E+01
-1.2318867731E+01   -1.2274394910E+01   -1.2230242043E+01   -1.2186405689E+01
-1.2142882457E+01   -1.2099669004E+01   -1.2056762034E+01   -1.2014158299E+01
-1.1971854595E+01   -1.1929847763E+01   -1.1888134691E+01   -1.1846712306E+01
-1.1805577581E+01   -1.1764727530E+01   -1.1724159207E+01   -1.1683869709E+01
-1.1643856170E+01   -1.1604115765E+01   -1.1564645707E+01   -1.1525443247E+01
-1.1486505672E+01   -1.1447830306E+01   -1.1409414510E+01   -1.1371255680E+01
-1.1333351245E+01   -1.1295698670E+01   -1.1258295453E+01   -1.1221139126E+01
-1.1184227251E+01   -1.1147557425E+01   -1.1111127274E+01   -1.1074934456E+01
-1.1038976659E+01   -1.1003251601E+01   -1.0967757031E+01   -1.0932490724E+01
-1.0897450486E+01   -1.0862634150E+01   -1.0828039577E+01   -1.0793664655E+01
-1.0759507298E+01   -1.0725565447E+01   -1.0691837070E+01   -1.0658320158E+01
-1.0625012729E+01   -1.0591912826E+01   -1.0559018514E+01   -1.0526327885E+01
-1.0493839052E+01   -1.0461550152E+01   -1.0429459346E+01   -1.0397564816E+01
-1.0365864767E+01   -1.0334357425E+01   -1.0303041039E+01   -1.0271913878E+01
-1.0240974232E+01   -1.0210220411E+01   -1.0179650747E+01   -1.0149263590E+01
-1.0119057312E+01   -1.0089030300E+01   -1.0059180965E+01   -1.0029507734E+01
-1.0000009053E+01   -9.9706833871E+00   -9.9415292176E+00   -9.9125450448E+00
-9.8837293864E+00   -9.8550807768E+00   -9.8265977677E+00   -9.7982789273E+00
-9.7701228405E+00   -9.7421281081E+00   -9.7142933470E+00   -9.6866171901E+00
-9.6590982855E+00   -9.6317352968E+00   -9.6045269027E+00   -9.5774717967E+00
-9.5505686870E+00   -9.5238162964E+00   -9.4972133618E+00   -9.4707586343E+00
-9.4444508789E+00   -9.4182888740E+00   -9.3922714119E+00   -9.3663972979E+00
-9.3406653506E+00   -9.3150744015E+00   -9.2896232948E+00   -9.2643108875E+00
-9.2391360488E+00   -9.2140976602E+00   -9.1891946154E+00   -9.1644258199E+00
-9.1397901912E+00   -9.1152866580E+00   -9.0909141609E+00   -9.0666716515E+00
-9.0425580927E+00   -9.0185724583E+00   -8.9947137331E+00   -8.9709809124E+00
-8.9473730023E+00   -8.9238890193E+00   -8.9005279900E+00   -8.8772889515E+00
-8.8541709505E+00   -8.8311730440E+00   -8.8082942985E+00   -8.7855337904E+00
-8.7628906054E+00   -8.7403638388E+00   -8.7179525948E+00   -8.6956559873E+00
-8.6734731389E+00   -8.6514031811E+00   -8.6294452543E+00   -8.6075985078E+00
-8.5858620993E+00   -8.5642351948E+00   -8.5427169691E+00   -8.5213066049E+00
-8.5000032933E+00   -8.4788062334E+00   -8.4577146323E+00   -8.4367277049E+00
-8.4158446739E+00   -8.3950647697E+00   -8.3743872303E+00   -8.3538113011E+00
-8.3333362350E+00   -8.3129612922E+00   -8.2926857400E+00   -8.2725088529E+00
-8.2524299126E+00   -8.2324482074E+00   -8.2125630329E+00   -8.1927736912E+00
-8.1730794912E+00   -8.1534797483E+00   -8.1339737848E+00   -8.1145609290E+00
-8.0952405160E+00   -8.0760118870E+00   -8.0568743895E+00   -8.0378273771E+00
-8.0188702097E+00   -8.0000022530E+00   -7.9812228788E+00   -7.9625314647E+00
-7.9439273942E+00   -7.9254100564E+00   -7.9069788463E+00   -7.8886331643E+00
-7.8703724164E+00   -7.8521960143E+00   -7.8341033749E+00   -7.8160939204E+00
-7.7981670786E+00   -7.7803222822E+00   -7.7625589693E+00   -7.7448765831E+00
-7.7272745717E+00   -7.7097523885E+00   -7.6923094915E+00   -7.6749453439E+00
-7.6576594135E+00   -7.6404511730E+00   -7.6233200999E+00   -7.6062656762E+00
-7.5892873887E+00   -7.5723847286E+00   -7.5555571918E+00   -7.5388042785E+00
-7.5221254934E+00   -7.5055203456E+00   -7.4889883486E+00   -7.4725290199E+00
-7.4561418816E+00   -7.4398264596E+00   -7.4235822843E+00   -7.4074088899E+00
-7.3913058149E+00   -7.3752726017E+00   -7.3593087965E+00   -7.3434139496E+00
-7.3275876152E+00   -7.3118293513E+00   -7.2961387196E+00   -7.2805152857E+00
-7.2649586188E+00   -7.2494682917E+00   -7.2340438812E+00   -7.2186849672E+00
-7.2033911335E+00   -7.1881619674E+00   -7.1729970595E+00   -7.1578960039E+00
-7.1428583983E+00   -7.1278838436E+00   -7.1129719441E+00   -7.0981223073E+00
-7.0833345441E+00   -7.0686082686E+00   -7.0539430981E+00   -7.0393386530E+00
-7.0247945569E+00   -7.0103104366E+00   -6.9958859218E+00   -6.9815206453E+00
-6.9672142429E+00   -6.9529663536E+00   -6.9387766189E+00   -6.9246446836E+00
-6.9105701953E+00   -6.8965528043E+00   -6.8825921639E+00   -6.8686879302E+00
-6.8548397619E+00   -6.8410473208E+00   -6.8273102710E+00   -6.8136282795E+00
-6.8000010160E+00   -6.7864281527E+00   -6.7729093647E+00   -6.7594443292E+00
-6.7460327265E+00   -6.7326742390E+00   -6.7193685518E+00   -6.7061153525E+00
-6.6929143312E+00   -6.6797651803E+00   -6.6666675947E+00   -6.6536212716E+00
-6.6406259106E+00   -6.6276812138E+00   -6.6147868855E+00   -6.6019426322E+00
-6.5891481627E+00   -6.5764031883E+00   -6.5637074223E+00   -6.5510605801E+00
-6.5384623796E+00   -6.5259125406E+00   -6.5134107853E+00   -6.5009568378E+00
-6.4885504244E+00   -6.4761912734E+00   -6.4638791154E+00   -6.4516136827E+00
-6.4393947100E+00   -6.4272219337E+00   -6.4150950923E+00   -6.4030139264E+00
-6.3909781783E+00   -6.3789875924E+00   -6.3670419150E+00   -6.3551408942E+00
-6.3432842802E+00   -6.3314718248E+00   -6.3197032818E+00   -6.3079784068E+00
-6.2962969572E+00   -6.2846586922E+00   -6.2730633727E+00   -6.2615107615E+00
-6.2500006230E+00   -6.2385327235E+00   -6.2271068309E+00   -6.2157227147E+00
-6.2043801464E+00   -6.1930788988E+00   -6.1818187465E+00   -6.1705994659E+00
-6.1594208348E+00   -6.1482826326E+00   -6.1371846404E+00   -6.1261266409E+00
-6.1151084184E+00   -6.1041297584E+00   -6.0931904484E+00   -6.0822902772E+00
-6.0714290351E+00   -6.0606065139E+00   -6.0498225070E+00   -6.0390768090E+00
-6.0283692163E+00   -6.0176995264E+00   -6.0070675386E+00   -5.9964730533E+00
-5.9859158724E+00   -5.9753957993E+00   -5.9649126387E+00   -5.9544661965E+00
-5.9440562803E+00   -5.9336826989E+00   -5.9233452622E+00   -5.9130437818E+00
-5.9027780703E+00   -5.8925479417E+00   -5.8823532115E+00   -5.8721936962E+00
-5.8620692136E+00   -5.8519795828E+00   -5.8419246243E+00   -5.8319041595E+00
-5.8219180114E+00   -5.8119660038E+00   -5.8020479621E+00   -5.7921637126E+00
-5.7823130829E+00   -5.7724959018E+00   -5.7627119993E+00   -5.7529612063E+00
-5.7432433552E+00   -5.7335582792E+00   -5.7239058128E+00   -5.7142857917E+00
-5.7046980524E+00   -5.6951424328E+00   -5.6856187718E+00   -5.6761269092E+00
</PP_LOCAL>
<PP_NONLOCAL>
<PP_BETA.1
type="real"
size="600"
columns="4"
index="1"
angular_momentum="0"
cutoff_radius_index=" 144"
cutoff_radius="    1.4300000000E+00" >
1.7563772658E-10    7.8996893812E-02    1.5782649547E-01    2.3632172055E-01
3.1431590269E-01    3.9164300939E-01    4.6813786556E-01    5.4363638742E-01
6.1797582899E-01    6.9099504302E-01    7.6253475837E-01    8.3243787518E-01
9.0054977903E-01    9.6671867487E-01    1.0307959413E+00    1.0926365051E+00
1.1520992356E+00    1.2090473587E+00    1.2633488886E+00    1.3148770756E+00
1.3635108695E+00    1.4091353936E+00    1.4516424292E+00    1.4909309054E+00
1.5269073918E+00    1.5594865902E+00    1.5885918201E+00    1.6141554963E+00
1.6361195906E+00    1.6544360757E+00    1.6690673459E+00    1.6799866084E+00
1.6871782429E+00    1.6906381218E+00    1.6903738894E+00    1.6864051934E+00
1.6787638650E+00    1.6674940448E+00    1.6526522486E+00    1.6343073726E+00
1.6125406322E+00    1.5874454349E+00    1.5591271827E+00    1.5277030049E+00
1.4933014189E+00    1.4560619200E+00    1.4161344996E+00    1.3736790934E+00
1.3288649615E+00    1.2818700020E+00    1.2328800014E+00    1.1820878256E+00
1.1296925555E+00    1.0758985714E+00    1.0209145925E+00    9.6495267591E-01
9.0822718349E-01    8.5095372053E-01    7.9334805572E-01    7.3562502833E-01
6.7799745076E-01    6.2067501411E-01    5.6386320467E-01    5.0776223937E-01
4.5256602799E-01    3.9846117013E-01    3.4562599435E-01    2.9422964725E-01
2.4443123924E-01    1.9637905399E-01    1.5020982768E-01    1.0604810394E-01
6.4005669495E-02    2.4181075315E-02   -1.3340753025E-02   -4.8488812502E-02
-8.1206224917E-02   -1.1145034263E-01   -1.3919275696E-01   -1.6441920912E-01
-1.8712940468E-01   -2.0733673301E-01   -2.2506789423E-01   -2.4036243700E-01
-2.5327221101E-01   -2.6386073908E-01   -2.7220251424E-01   -2.7838222802E-01
-2.8249393659E-01   -2.8464017196E-01   -2.8493100618E-01   -2.8348307637E-01
-2.8041857936E-01   -2.7586424430E-01   -2.6995029235E-01   -2.6280939230E-01
-2.5457562089E-01   -2.4538343691E-01   -2.3536667742E-01   -2.2465758463E-01
-2.1338587137E-01   -2.0167783264E-01   -1.8965551039E-01   -1.7743591792E-01
-1.6513032966E-01   -1.5284364157E-01   -1.4067380626E-01   -1.2871134660E-01
-1.1703895032E-01   -1.0573114737E-01   -9.4854071144E-02   -8.4465303326E-02
-7.4613801600E-02   -6.5339908281E-02   -5.6675437272E-02   -4.8643835727E-02
-4.1260416022E-02   -3.4532652815E-02   -2.8460539417E-02   -2.3036996773E-02
-1.8248327872E-02   -1.4074709895E-02   -1.0490715938E-02   -7.4658576561E-03
-4.9651400360E-03   -2.9496192641E-03   -1.3769544271E-03   -2.0194106019E-04
6.2296339287E-04    1.1472040288E-03    1.4214972433E-03    1.4980216962E-03
1.4290781635E-03    1.2643807299E-03    1.0481867363E-03    8.1723240148E-04
6.0075563508E-04    4.1968874810E-04    2.8326542726E-04    2.0225184008E-04
1.8147179221E-04    1.4110273434E-04    4.1192989780E-05   -1.5254007081E-05
0. 0. 0. 0.
0. 0. 0. 0.
0. 0. 0. 0.
0. 0. 0. 0.
0. 0. 0. 0.
0. 0. 0. 0.
0. 0. 0. 0.
0. 0. 0. 0.
0. 0. 0. 0.
0. 0. 0. 0.
0. 0. 0. 0.
0. 0. 0. 0.
0. 0. 0. 0.
0. 0. 0. 0.
0. 0. 0. 0.
0. 0. 0. 0.
0. 0. 0. 0.
0. 0. 0. 0.
0. 0. 0. 0.
0. 0. 0. 0.
0. 0. 0. 0.
0. 0. 0. 0.
0. 0. 0. 0.
0. 0. 0. 0.
0. 0. 0. 0.
0. 0. 0. 0.
0. 0. 0. 0.
0. 0. 0. 0.
0. 0. 0. 0.
0. 0. 0. 0.
0. 0. 0. 0.
0. 0. 0. 0.
0. 0. 0. 0.
0. 0. 0. 0.
0. 0. 0. 0.
0. 0. 0. 0.
0. 0. 0. 0.
0. 0. 0. 0.
0. 0. 0. 0.
0. 0. 0. 0.
0. 0. 0. 0.
0. 0. 0. 0.
0. 0. 0. 0.
0. 0. 0. 0.
0. 0. 0. 0.
0. 0. 0. 0.
0. 0. 0. 0.
0. 0. 0. 0.
0. 0. 0. 0.
0. 0. 0. 0.
0. 0. 0. 0.
0. 0. 0. 0.
0. 0. 0. 0.
0. 0. 0. 0.
0. 0. 0. 0.
0. 0. 0. 0.
0. 0. 0. 0.
0. 0. 0. 0.
0. 0. 0. 0.
0. 0. 0. 0.
0. 0. 0. 0.
0. 0. 0. 0.
0. 0. 0. 0.
0. 0. 0. 0.
0. 0. 0. 0.
0. 0. 0. 0.
0. 0. 0. 0.
0. 0. 0. 0.
0. 0. 0. 0.
0. 0. 0. 0.
0. 0. 0. 0.
0. 0. 0. 0.
0. 0. 0. 0.
0. 0. 0. 0.
0. 0. 0. 0.
0. 0. 0. 0.
0. 0. 0. 0.
0. 0. 0. 0.
0. 0. 0. 0.
0. 0. 0. 0.
0. 0. 0. 0.
0. 0. 0. 0.
0. 0. 0. 0.
0. 0. 0. 0.
0. 0. 0. 0.
0. 0. 0. 0.
0. 0. 0. 0.
0. 0. 0. 0.
0. 0. 0. 0.
0. 0. 0. 0.
0. 0. 0. 0.
0. 0. 0. 0.
0. 0. 0. 0.
0. 0. 0. 0.
0. 0. 0. 0.
0. 0. 0. 0.
0. 0. 0. 0.
0. 0. 0. 0.
0. 0. 0. 0.
0. 0. 0. 0.
0. 0. 0. 0.
0. 0. 0. 0.
0. 0. 0. 0.
0. 0. 0. 0.
0. 0. 0. 0.
0. 0. 0. 0.
0. 0. 0. 0.
0. 0. 0. 0.
0. 0. 0. 0.
0. 0. 0. 0.
0. 0. 0. 0.
0. 0. 0. 0.