<UPF version="2.0.1">
<PP_INFO>
NOTE!!!!
This file is trimmed with a mesh size of 600 from the original version.
Trimming performed at 2023-03-31 09:10:05.041521 by trim_upf.py version 0.1.0

This pseudopotential file has been produced using the code
ONCVPSP  (Optimized Norm-Conservinng Vanderbilt PSeudopotential)
scalar-relativistic version 3.3.0 08/16/2017 by D. R. Hamann
The code is available through a link at URL www.mat-simresearch.com.
Documentation with the package provides a full discription of the
input data below.
While it is not required under the terms of the GNU GPL, it is
suggested that you cite D. R. Hamann, Phys. Rev. B 88, 085117 (2013)
in any publication using these pseudopotentials.
<PP_INPUTFILE>
# ATOM AND REFERENCE CONFIGURATION
# atsym  z   nc   nv     iexc    psfile
Rn 86.00   12    3       4      upf
#
#   n    l    f        energy (Ha)
1    0    2.00
2    0    2.00
2    1    6.00
3    0    2.00
3    1    6.00
3    2   10.00
4    0    2.00
4    1    6.00
4    2   10.00
5    0    2.00
5    1    6.00
4    3   14.00
5    2   10.00
6    0    2.00
6    1    6.00
#
# PSEUDOPOTENTIAL AND OPTIMIZATION
# lmax
2
#
#   l,   rc,      ep,       ncon, nbas, qcut
0   2.20000  -0.80403    4    7   3.60000
1   2.00000  -0.28353    4    7   4.60000
2   1.80000  -1.70024    4    8   8.40000
#
# LOCAL POTENTIAL
# lloc, lpopt,  rc(5),   dvloc0
4    5   1.80000      0.00000
#
# VANDERBILT-KLEINMAN-BYLANDER PROJECTORs
# l, nproj, debl
0    2   2.80000
1    2   2.50000
2    2   1.80000
#
# MODEL CORE CHARGE
# icmod, fcfact, rcfact
3   6.00000   1.34000
#
# LOG DERIVATIVE ANALYSIS
# epsh1, epsh2, depsh
-12.00   12.00    0.02
#
# OUTPUT GRID
# rlmax, drl
6.00    0.01
#
# TEST CONFIGURATIONS
# ncnf
0
# nvcnf
#   n    l    f
</PP_INPUTFILE>
</PP_INFO>
<!--                               -->
<!-- END OF HUMAN READABLE SECTION -->
<!--                               -->
<PP_HEADER
generated="Generated using ONCVPSP code by D. R. Hamann"
author="anonymous"
date="171031"
comment=""
element="Rn"
pseudo_type="NC"
relativistic="scalar"
is_ultrasoft="F"
is_paw="F"
is_coulomb="F"
has_so="F"
has_wfc="F"
has_gipaw="F"
core_correction="T"
functional="PBE"
z_valence="   18.00"
total_psenergy="  -2.19928251851E+02"
rho_cutoff="   1.14500000000E+01"
l_max="2"
l_local="-1"
mesh_size="   600"
number_of_wfc="3"
number_of_proj="6"/>
<PP_MESH>
<PP_R type="real"  size="600" columns="8">
0.0000    0.0100    0.0200    0.0300    0.0400    0.0500    0.0600    0.0700
0.0800    0.0900    0.1000    0.1100    0.1200    0.1300    0.1400    0.1500
0.1600    0.1700    0.1800    0.1900    0.2000    0.2100    0.2200    0.2300
0.2400    0.2500    0.2600    0.2700    0.2800    0.2900    0.3000    0.3100
0.3200    0.3300    0.3400    0.3500    0.3600    0.3700    0.3800    0.3900
0.4000    0.4100    0.4200    0.4300    0.4400    0.4500    0.4600    0.4700
0.4800    0.4900    0.5000    0.5100    0.5200    0.5300    0.5400    0.5500
0.5600    0.5700    0.5800    0.5900    0.6000    0.6100    0.6200    0.6300
0.6400    0.6500    0.6600    0.6700    0.6800    0.6900    0.7000    0.7100
0.7200    0.7300    0.7400    0.7500    0.7600    0.7700    0.7800    0.7900
0.8000    0.8100    0.8200    0.8300    0.8400    0.8500    0.8600    0.8700
0.8800    0.8900    0.9000    0.9100    0.9200    0.9300    0.9400    0.9500
0.9600    0.9700    0.9800    0.9900    1.0000    1.0100    1.0200    1.0300
1.0400    1.0500    1.0600    1.0700    1.0800    1.0900    1.1000    1.1100
1.1200    1.1300    1.1400    1.1500    1.1600    1.1700    1.1800    1.1900
1.2000    1.2100    1.2200    1.2300    1.2400    1.2500    1.2600    1.2700
1.2800    1.2900    1.3000    1.3100    1.3200    1.3300    1.3400    1.3500
1.3600    1.3700    1.3800    1.3900    1.4000    1.4100    1.4200    1.4300
1.4400    1.4500    1.4600    1.4700    1.4800    1.4900    1.5000    1.5100
1.5200    1.5300    1.5400    1.5500    1.5600    1.5700    1.5800    1.5900
1.6000    1.6100    1.6200    1.6300    1.6400    1.6500    1.6600    1.6700
1.6800    1.6900    1.7000    1.7100    1.7200    1.7300    1.7400    1.7500
1.7600    1.7700    1.7800    1.7900    1.8000    1.8100    1.8200    1.8300
1.8400    1.8500    1.8600    1.8700    1.8800    1.8900    1.9000    1.9100
1.9200    1.9300    1.9400    1.9500    1.9600    1.9700    1.9800    1.9900
2.0000    2.0100    2.0200    2.0300    2.0400    2.0500    2.0600    2.0700
2.0800    2.0900    2.1000    2.1100    2.1200    2.1300    2.1400    2.1500
2.1600    2.1700    2.1800    2.1900    2.2000    2.2100    2.2200    2.2300
2.2400    2.2500    2.2600    2.2700    2.2800    2.2900    2.3000    2.3100
2.3200    2.3300    2.3400    2.3500    2.3600    2.3700    2.3800    2.3900
2.4000    2.4100    2.4200    2.4300    2.4400    2.4500    2.4600    2.4700
2.4800    2.4900    2.5000    2.5100    2.5200    2.5300    2.5400    2.5500
2.5600    2.5700    2.5800    2.5900    2.6000    2.6100    2.6200    2.6300
2.6400    2.6500    2.6600    2.6700    2.6800    2.6900    2.7000    2.7100
2.7200    2.7300    2.7400    2.7500    2.7600    2.7700    2.7800    2.7900
2.8000    2.8100    2.8200    2.8300    2.8400    2.8500    2.8600    2.8700
2.8800    2.8900    2.9000    2.9100    2.9200    2.9300    2.9400    2.9500
2.9600    2.9700    2.9800    2.9900    3.0000    3.0100    3.0200    3.0300
3.0400    3.0500    3.0600    3.0700    3.0800    3.0900    3.1000    3.1100
3.1200    3.1300    3.1400    3.1500    3.1600    3.1700    3.1800    3.1900
3.2000    3.2100    3.2200    3.2300    3.2400    3.2500    3.2600    3.2700
3.2800    3.2900    3.3000    3.3100    3.3200    3.3300    3.3400    3.3500
3.3600    3.3700    3.3800    3.3900    3.4000    3.4100    3.4200    3.4300
3.4400    3.4500    3.4600    3.4700    3.4800    3.4900    3.5000    3.5100
3.5200    3.5300    3.5400    3.5500    3.5600    3.5700    3.5800    3.5900
3.6000    3.6100    3.6200    3.6300    3.6400    3.6500    3.6600    3.6700
3.6800    3.6900    3.7000    3.7100    3.7200    3.7300    3.7400    3.7500
3.7600    3.7700    3.7800    3.7900    3.8000    3.8100    3.8200    3.8300
3.8400    3.8500    3.8600    3.8700    3.8800    3.8900    3.9000    3.9100
3.9200    3.9300    3.9400    3.9500    3.9600    3.9700    3.9800    3.9900
4.0000    4.0100    4.0200    4.0300    4.0400    4.0500    4.0600    4.0700
4.0800    4.0900    4.1000    4.1100    4.1200    4.1300    4.1400    4.1500
4.1600    4.1700    4.1800    4.1900    4.2000    4.2100    4.2200    4.2300
4.2400    4.2500    4.2600    4.2700    4.2800    4.2900    4.3000    4.3100
4.3200    4.3300    4.3400    4.3500    4.3600    4.3700    4.3800    4.3900
4.4000    4.4100    4.4200    4.4300    4.4400    4.4500    4.4600    4.4700
4.4800    4.4900    4.5000    4.5100    4.5200    4.5300    4.5400    4.5500
4.5600    4.5700    4.5800    4.5900    4.6000    4.6100    4.6200    4.6300
4.6400    4.6500    4.6600    4.6700    4.6800    4.6900    4.7000    4.7100
4.7200    4.7300    4.7400    4.7500    4.7600    4.7700    4.7800    4.7900
4.8000    4.8100    4.8200    4.8300    4.8400    4.8500    4.8600    4.8700
4.8800    4.8900    4.9000    4.9100    4.9200    4.9300    4.9400    4.9500
4.9600    4.9700    4.9800    4.9900    5.0000    5.0100    5.0200    5.0300
5.0400    5.0500    5.0600    5.0700    5.0800    5.0900    5.1000    5.1100
5.1200    5.1300    5.1400    5.1500    5.1600    5.1700    5.1800    5.1900
5.2000    5.2100    5.2200    5.2300    5.2400    5.2500    5.2600    5.2700
5.2800    5.2900    5.3000    5.3100    5.3200    5.3300    5.3400    5.3500
5.3600    5.3700    5.3800    5.3900    5.4000    5.4100    5.4200    5.4300
5.4400    5.4500    5.4600    5.4700    5.4800    5.4900    5.5000    5.5100
5.5200    5.5300    5.5400    5.5500    5.5600    5.5700    5.5800    5.5900
5.6000    5.6100    5.6200    5.6300    5.6400    5.6500    5.6600    5.6700
5.6800    5.6900    5.7000    5.7100    5.7200    5.7300    5.7400    5.7500
5.7600    5.7700    5.7800    5.7900    5.8000    5.8100    5.8200    5.8300
5.8400    5.8500    5.8600    5.8700    5.8800    5.8900    5.9000    5.9100
5.9200    5.9300    5.9400    5.9500    5.9600    5.9700    5.9800    5.9900
</PP_R>
<PP_RAB type="real"  size="600" columns="8">
0.0100    0.0100    0.0100    0.0100    0.0100    0.0100    0.0100    0.0100
0.0100    0.0100    0.0100    0.0100    0.0100    0.0100    0.0100    0.0100
0.0100    0.0100    0.0100    0.0100    0.0100    0.0100    0.0100    0.0100
0.0100    0.0100    0.0100    0.0100    0.0100    0.0100    0.0100    0.0100
0.0100    0.0100    0.0100    0.0100    0.0100    0.0100    0.0100    0.0100
0.0100    0.0100    0.0100    0.0100    0.0100    0.0100    0.0100    0.0100
0.0100    0.0100    0.0100    0.0100    0.0100    0.0100    0.0100    0.0100
0.0100    0.0100    0.0100    0.0100    0.0100    0.0100    0.0100    0.0100
0.0100    0.0100    0.0100    0.0100    0.0100    0.0100    0.0100    0.0100
0.0100    0.0100    0.0100    0.0100    0.0100    0.0100    0.0100    0.0100
0.0100    0.0100    0.0100    0.0100    0.0100    0.0100    0.0100    0.0100
0.0100    0.0100    0.0100    0.0100    0.0100    0.0100    0.0100    0.0100
0.0100    0.0100    0.0100    0.0100    0.0100    0.0100    0.0100    0.0100
0.0100    0.0100    0.0100    0.0100    0.0100    0.0100    0.0100    0.0100
0.0100    0.0100    0.0100    0.0100    0.0100    0.0100    0.0100    0.0100
0.0100    0.0100    0.0100    0.0100    0.0100    0.0100    0.0100    0.0100
0.0100    0.0100    0.0100    0.0100    0.0100    0.0100    0.0100    0.0100
0.0100    0.0100    0.0100    0.0100    0.0100    0.0100    0.0100    0.0100
0.0100    0.0100    0.0100    0.0100    0.0100    0.0100    0.0100    0.0100
0.0100    0.0100    0.0100    0.0100    0.0100    0.0100    0.0100    0.0100
0.0100    0.0100    0.0100    0.0100    0.0100    0.0100    0.0100    0.0100
0.0100    0.0100    0.0100    0.0100    0.0100    0.0100    0.0100    0.0100
0.0100    0.0100    0.0100    0.0100    0.0100    0.0100    0.0100    0.0100
0.0100    0.0100    0.0100    0.0100    0.0100    0.0100    0.0100    0.0100
0.0100    0.0100    0.0100    0.0100    0.0100    0.0100    0.0100    0.0100
0.0100    0.0100    0.0100    0.0100    0.0100    0.0100    0.0100    0.0100
0.0100    0.0100    0.0100    0.0100    0.0100    0.0100    0.0100    0.0100
0.0100    0.0100    0.0100    0.0100    0.0100    0.0100    0.0100    0.0100
0.0100    0.0100    0.0100    0.0100    0.0100    0.0100    0.0100    0.0100
0.0100    0.0100    0.0100    0.0100    0.0100    0.0100    0.0100    0.0100
0.0100    0.0100    0.0100    0.0100    0.0100    0.0100    0.0100    0.0100
0.0100    0.0100    0.0100    0.0100    0.0100    0.0100    0.0100    0.0100
0.0100    0.0100    0.0100    0.0100    0.0100    0.0100    0.0100    0.0100
0.0100    0.0100    0.0100    0.0100    0.0100    0.0100    0.0100    0.0100
0.0100    0.0100    0.0100    0.0100    0.0100    0.0100    0.0100    0.0100
0.0100    0.0100    0.0100    0.0100    0.0100    0.0100    0.0100    0.0100
0.0100    0.0100    0.0100    0.0100    0.0100    0.0100    0.0100    0.0100
0.0100    0.0100    0.0100    0.0100    0.0100    0.0100    0.0100    0.0100
0.0100    0.0100    0.0100    0.0100    0.0100    0.0100    0.0100    0.0100
0.0100    0.0100    0.0100    0.0100    0.0100    0.0100    0.0100    0.0100
0.0100    0.0100    0.0100    0.0100    0.0100    0.0100    0.0100    0.0100
0.0100    0.0100    0.0100    0.0100    0.0100    0.0100    0.0100    0.0100
0.0100    0.0100    0.0100    0.0100    0.0100    0.0100    0.0100    0.0100
0.0100    0.0100    0.0100    0.0100    0.0100    0.0100    0.0100    0.0100
0.0100    0.0100    0.0100    0.0100    0.0100    0.0100    0.0100    0.0100
0.0100    0.0100    0.0100    0.0100    0.0100    0.0100    0.0100    0.0100
0.0100    0.0100    0.0100    0.0100    0.0100    0.0100    0.0100    0.0100
0.0100    0.0100    0.0100    0.0100    0.0100    0.0100    0.0100    0.0100
0.0100    0.0100    0.0100    0.0100    0.0100    0.0100    0.0100    0.0100
0.0100    0.0100    0.0100    0.0100    0.0100    0.0100    0.0100    0.0100
0.0100    0.0100    0.0100    0.0100    0.0100    0.0100    0.0100    0.0100
0.0100    0.0100    0.0100    0.0100    0.0100    0.0100    0.0100    0.0100
0.0100    0.0100    0.0100    0.0100    0.0100    0.0100    0.0100    0.0100
0.0100    0.0100    0.0100    0.0100    0.0100    0.0100    0.0100    0.0100
0.0100    0.0100    0.0100    0.0100    0.0100    0.0100    0.0100    0.0100
0.0100    0.0100    0.0100    0.0100    0.0100    0.0100    0.0100    0.0100
0.0100    0.0100    0.0100    0.0100    0.0100    0.0100    0.0100    0.0100
0.0100    0.0100    0.0100    0.0100    0.0100    0.0100    0.0100    0.0100
0.0100    0.0100    0.0100    0.0100    0.0100    0.0100    0.0100    0.0100
0.0100    0.0100    0.0100    0.0100    0.0100    0.0100    0.0100    0.0100
0.0100    0.0100    0.0100    0.0100    0.0100    0.0100    0.0100    0.0100
0.0100    0.0100    0.0100    0.0100    0.0100    0.0100    0.0100    0.0100
0.0100    0.0100    0.0100    0.0100    0.0100    0.0100    0.0100    0.0100
0.0100    0.0100    0.0100    0.0100    0.0100    0.0100    0.0100    0.0100
0.0100    0.0100    0.0100    0.0100    0.0100    0.0100    0.0100    0.0100
0.0100    0.0100    0.0100    0.0100    0.0100    0.0100    0.0100    0.0100
0.0100    0.0100    0.0100    0.0100    0.0100    0.0100    0.0100    0.0100
0.0100    0.0100    0.0100    0.0100    0.0100    0.0100    0.0100    0.0100
0.0100    0.0100    0.0100    0.0100    0.0100    0.0100    0.0100    0.0100
0.0100    0.0100    0.0100    0.0100    0.0100    0.0100    0.0100    0.0100
0.0100    0.0100    0.0100    0.0100    0.0100    0.0100    0.0100    0.0100
0.0100    0.0100    0.0100    0.0100    0.0100    0.0100    0.0100    0.0100
0.0100    0.0100    0.0100    0.0100    0.0100    0.0100    0.0100    0.0100
0.0100    0.0100    0.0100    0.0100    0.0100    0.0100    0.0100    0.0100
0.0100    0.0100    0.0100    0.0100    0.0100    0.0100    0.0100    0.0100
</PP_RAB>
</PP_MESH>
<PP_LOCAL type="real"  size="600" columns="4">
-4.0828945026E+01   -4.0828318674E+01   -4.0826439522E+01   -4.0823307326E+01
-4.0818921632E+01   -4.0813281721E+01   -4.0806386535E+01   -4.0798234575E+01
-4.0788823789E+01   -4.0778151447E+01   -4.0766214009E+01   -4.0753006981E+01
-4.0738524777E+01   -4.0722760578E+01   -4.0705706203E+01   -4.0687351983E+01
-4.0667686652E+01   -4.0646697251E+01   -4.0624369054E+01   -4.0600685512E+01
-4.0575628211E+01   -4.0549176869E+01   -4.0521309336E+01   -4.0492001632E+01
-4.0461228000E+01   -4.0428960978E+01   -4.0395171499E+01   -4.0359828995E+01
-4.0322901531E+01   -4.0284355942E+01   -4.0244157985E+01   -4.0202272498E+01
-4.0158663561E+01   -4.0113294666E+01   -4.0066128883E+01   -4.0017129021E+01
-3.9966257797E+01   -3.9913477982E+01   -3.9858752559E+01   -3.9802044859E+01
-3.9743318700E+01   -3.9682538508E+01   -3.9619669447E+01   -3.9554677521E+01
-3.9487529692E+01   -3.9418193979E+01   -3.9346639558E+01   -3.9272836863E+01
-3.9196757684E+01   -3.9118375265E+01   -3.9037664404E+01   -3.8954601559E+01
-3.8869164953E+01   -3.8781334686E+01   -3.8691092848E+01   -3.8598423647E+01
-3.8503313529E+01   -3.8405751309E+01   -3.8305728311E+01   -3.8203238495E+01
-3.8098278607E+01   -3.7990848309E+01   -3.7880950317E+01   -3.7768590533E+01
-3.7653778171E+01   -3.7536525863E+01   -3.7416849765E+01   -3.7294769639E+01
-3.7170308915E+01   -3.7043494734E+01   -3.6914357968E+01   -3.6782933209E+01
-3.6649258736E+01   -3.6513376447E+01   -3.6375331773E+01   -3.6235173553E+01
-3.6092953892E+01   -3.5948727988E+01   -3.5802553942E+01   -3.5654492545E+01
-3.5504607052E+01   -3.5352962942E+01   -3.5199627667E+01   -3.5044670400E+01
-3.4888161775E+01   -3.4730173633E+01   -3.4570778764E+01   -3.4410050661E+01
-3.4248063277E+01   -3.4084890794E+01   -3.3920607397E+01   -3.3755287064E+01
-3.3589003359E+01   -3.3421829248E+01   -3.3253836910E+01   -3.3085097571E+01
-3.2915681342E+01   -3.2745657067E+01   -3.2575092180E+01   -3.2404052572E+01
-3.2232602463E+01   -3.2060804286E+01   -3.1888718575E+01   -3.1716403866E+01
-3.1543916602E+01   -3.1371311050E+01   -3.1198639230E+01   -3.1025950854E+01
-3.0853293276E+01   -3.0680711460E+01   -3.0508247963E+01   -3.0335942933E+01
-3.0163834132E+01   -2.9991956977E+01   -2.9820344597E+01   -2.9649027929E+01
-2.9478035820E+01   -2.9307395165E+01   -2.9137131062E+01   -2.8967266991E+01
-2.8797825015E+01   -2.8628825987E+01   -2.8460289780E+01   -2.8292235514E+01
-2.8124681785E+01   -2.7957646893E+01   -2.7791149041E+01   -2.7625206518E+01
-2.7459837855E+01   -2.7295061927E+01   -2.7130898019E+01   -2.6967365831E+01
-2.6804485425E+01   -2.6642277117E+01   -2.6480761296E+01   -2.6319958196E+01
-2.6159887608E+01   -2.6000568561E+01   -2.5842018962E+01   -2.5684255243E+01
-2.5527292008E+01   -2.5371141721E+01   -2.5215814455E+01   -2.5061317731E+01
-2.4907656456E+01   -2.4754833010E+01   -2.4602847458E+01   -2.4451697931E+01
-2.4301381146E+01   -2.4151893063E+01   -2.4003229660E+01   -2.3855387777E+01
-2.3708366001E+01   -2.3562165533E+01   -2.3416790981E+01   -2.3272251040E+01
-2.3128559011E+01   -2.2985733093E+01   -2.2843796489E+01   -2.2702777230E+01
-2.2562707816E+01   -2.2423624602E+01   -2.2285567054E+01   -2.2148576839E+01
-2.2012696856E+01   -2.1877970230E+01   -2.1744439312E+01   -2.1612144773E+01
-2.1481124753E+01   -2.1351414170E+01   -2.1223044129E+01   -2.1096041511E+01
-2.0970428670E+01   -2.0846223264E+01   -2.0723438103E+01   -2.0602081401E+01
-2.0482156900E+01   -2.0363663634E+01   -2.0246597004E+01   -2.0130946791E+01
-2.0016695695E+01   -1.9903821660E+01   -1.9792295882E+01   -1.9682088082E+01
-1.9573177518E+01   -1.9465551186E+01   -1.9359194132E+01   -1.9254086728E+01
-1.9150209535E+01   -1.9047544475E+01   -1.8946073142E+01   -1.8845776907E+01
-1.8746637176E+01   -1.8648635312E+01   -1.8551752765E+01   -1.8455971126E+01
-1.8361272104E+01   -1.8267637374E+01   -1.8175049426E+01   -1.8083489621E+01
-1.7992937039E+01   -1.7903368821E+01   -1.7814759650E+01   -1.7727081753E+01
-1.7640308214E+01   -1.7554419150E+01   -1.7469397174E+01   -1.7385226773E+01
-1.7301893197E+01   -1.7219382202E+01   -1.7137676174E+01   -1.7056757468E+01
-1.6976610056E+01   -1.6897219619E+01   -1.6818572339E+01   -1.6740653842E+01
-1.6663450381E+01   -1.6586948533E+01   -1.6511135429E+01   -1.6435999279E+01
-1.6361530103E+01   -1.6287719238E+01   -1.6214559447E+01   -1.6142045465E+01
-1.6070172105E+01   -1.5998931924E+01   -1.5928315672E+01   -1.5858313484E+01
-1.5788915576E+01   -1.5720112184E+01   -1.5651894162E+01   -1.5584254327E+01
-1.5517185901E+01   -1.5450681847E+01   -1.5384734563E+01   -1.5319336657E+01
-1.5254481287E+01   -1.5190161932E+01   -1.5126372273E+01   -1.5063106058E+01
-1.5000357219E+01   -1.4938119843E+01   -1.4876388187E+01   -1.4815156641E+01
-1.4754419724E+01   -1.4694172073E+01   -1.4634408435E+01   -1.4575123658E+01
-1.4516312679E+01   -1.4457970521E+01   -1.4400092279E+01   -1.4342673117E+01
-1.4285708260E+01   -1.4229192984E+01   -1.4173122616E+01   -1.4117492524E+01
-1.4062298113E+01   -1.4007534824E+01   -1.3953198124E+01   -1.3899283509E+01
-1.3845786497E+01   -1.3792702630E+01   -1.3740027467E+01   -1.3687756588E+01
-1.3635885591E+01   -1.3584410092E+01   -1.3533325727E+01   -1.3482628147E+01
-1.3432313029E+01   -1.3382376067E+01   -1.3332812982E+01   -1.3283619516E+01
-1.3234791443E+01   -1.3186324564E+01   -1.3138214713E+01   -1.3090457760E+01
-1.3043049611E+01   -1.2995986214E+01   -1.2949263559E+01   -1.2902877681E+01
-1.2856824666E+01   -1.2811100649E+01   -1.2765701819E+01   -1.2720624419E+01
-1.2675864753E+01   -1.2631419182E+01   -1.2587284129E+01   -1.2543456078E+01
-1.2499931580E+01   -1.2456707248E+01   -1.2413779762E+01   -1.2371145866E+01
-1.2328802373E+01   -1.2286746160E+01   -1.2244974169E+01   -1.2203483408E+01
-1.2162270949E+01   -1.2121333927E+01   -1.2080669538E+01   -1.2040275040E+01
-1.2000147747E+01   -1.1960285032E+01   -1.1920684320E+01   -1.1881343091E+01
-1.1842258873E+01   -1.1803429244E+01   -1.1764851825E+01   -1.1726524281E+01
-1.1688444319E+01   -1.1650609680E+01   -1.1613018143E+01   -1.1575667520E+01
-1.1538555652E+01   -1.1501680409E+01   -1.1465039687E+01   -1.1428631405E+01
-1.1392453505E+01   -1.1356503947E+01   -1.1320780712E+01   -1.1285281794E+01
-1.1250005205E+01   -1.1214948971E+01   -1.1180111128E+01   -1.1145489729E+01
-1.1111082834E+01   -1.1076888516E+01   -1.1042904859E+01   -1.1009129957E+01
-1.0975561915E+01   -1.0942198847E+01   -1.0909038880E+01   -1.0876080152E+01
-1.0843320813E+01   -1.0810759024E+01   -1.0778392961E+01   -1.0746220814E+01
-1.0714240788E+01   -1.0682451104E+01   -1.0650849998E+01   -1.0619435725E+01
-1.0588206559E+01   -1.0557160793E+01   -1.0526296739E+01   -1.0495612732E+01
-1.0465107128E+01   -1.0434778303E+01   -1.0404624659E+01   -1.0374644620E+01
-1.0344836634E+01   -1.0315199171E+01   -1.0285730728E+01   -1.0256429825E+01
-1.0227295003E+01   -1.0198324831E+01   -1.0169517900E+01   -1.0140872824E+01
-1.0112388236E+01   -1.0084062791E+01   -1.0055895181E+01   -1.0027884110E+01
-1.0000028297E+01   -9.9723265444E+00   -9.9447775074E+00   -9.9173799317E+00
-9.8901325975E+00   -9.8630341982E+00   -9.8360837275E+00   -9.8092802276E+00
-9.7826226910E+00   -9.7561101732E+00   -9.7297416594E+00   -9.7035157615E+00
-9.6774312181E+00   -9.6514867513E+00   -9.6256809588E+00   -9.6000127653E+00
-9.5744810387E+00   -9.5490846657E+00   -9.5238225687E+00   -9.4986936950E+00
-9.4736970074E+00   -9.4488314918E+00   -9.4240961478E+00   -9.3994900179E+00
-9.3750120707E+00   -9.3506613021E+00   -9.3264367176E+00   -9.3023373237E+00
-9.2783621370E+00   -9.2545102127E+00   -9.2307806029E+00   -9.2071723701E+00
-9.1836845895E+00   -9.1603163410E+00   -9.1370667132E+00   -9.1139348053E+00
-9.0909197254E+00   -9.0680205904E+00   -9.0452365267E+00   -9.0225666690E+00
-9.0000101609E+00   -8.9775661544E+00   -8.9552338100E+00   -8.9330122964E+00
-8.9109007908E+00   -8.8888984782E+00   -8.8670045518E+00   -8.8452182128E+00
-8.8235386700E+00   -8.8019651403E+00   -8.7804968478E+00   -8.7591330244E+00
-8.7378729096E+00   -8.7167157498E+00   -8.6956607992E+00   -8.6747073189E+00
-8.6538545771E+00   -8.6331018492E+00   -8.6124484172E+00   -8.5918935704E+00
-8.5714366044E+00   -8.5510768219E+00   -8.5308135320E+00   -8.5106460503E+00
-8.4905736990E+00   -8.4705958066E+00   -8.4507117078E+00   -8.4309207438E+00
-8.4112222616E+00   -8.3916156147E+00   -8.3721001622E+00   -8.3526752694E+00
-8.3333403075E+00   -8.3140946533E+00   -8.2949376896E+00   -8.2758688046E+00
-8.2568873924E+00   -8.2379928525E+00   -8.2191845897E+00   -8.2004620146E+00
-8.1818245430E+00   -8.1632715958E+00   -8.1448025993E+00   -8.1264169852E+00
-8.1081141899E+00   -8.0898936552E+00   -8.0717548277E+00   -8.0536971590E+00
-8.0357201058E+00   -8.0178231293E+00   -8.0000056956E+00   -7.9822672758E+00
-7.9646073454E+00   -7.9470253845E+00   -7.9295208779E+00   -7.9120933150E+00
-7.8947421895E+00   -7.8774669997E+00   -7.8602672482E+00   -7.8431424419E+00
-7.8260920920E+00   -7.8091157139E+00   -7.7922128275E+00   -7.7753829564E+00
-7.7586256285E+00   -7.7419403759E+00   -7.7253267346E+00   -7.7087842444E+00
-7.6923124494E+00   -7.6759108972E+00   -7.6595791396E+00   -7.6433167319E+00
-7.6271232335E+00   -7.6109982071E+00   -7.5949412195E+00   -7.5789518409E+00
-7.5630296452E+00   -7.5471742099E+00   -7.5313851160E+00   -7.5156619479E+00
-7.5000042936E+00   -7.4844117445E+00   -7.4688838955E+00   -7.4534203445E+00
-7.4380206930E+00   -7.4226845459E+00   -7.4074115110E+00   -7.3922011997E+00
-7.3770532262E+00   -7.3619672082E+00   -7.3469427663E+00   -7.3319795243E+00
-7.3170771089E+00   -7.3022351502E+00   -7.2874532808E+00   -7.2727311367E+00
-7.2580683565E+00   -7.2434645820E+00   -7.2289194576E+00   -7.2144326308E+00
-7.2000037518E+00   -7.1856324735E+00   -7.1713184517E+00   -7.1570613449E+00
-7.1428608144E+00   -7.1287165240E+00   -7.1146281403E+00   -7.1005953325E+00
-7.0866177723E+00   -7.0726951342E+00   -7.0588270950E+00   -7.0450133342E+00
-7.0312535338E+00   -7.0175473781E+00   -7.0038945542E+00   -6.9902947512E+00
-6.9767476610E+00   -6.9632529776E+00   -6.9498103975E+00   -6.9364196196E+00
-6.9230803450E+00   -6.9097922770E+00   -6.8965551215E+00   -6.8833685864E+00
-6.8702323818E+00   -6.8571462201E+00   -6.8441098159E+00   -6.8311228860E+00
-6.8181851492E+00   -6.8052963266E+00   -6.7924561413E+00   -6.7796643184E+00
-6.7669205854E+00   -6.7542246714E+00   -6.7415763078E+00   -6.7289752280E+00
-6.7164211673E+00   -6.7039138631E+00   -6.6914530546E+00   -6.6790384830E+00
-6.6666698915E+00   -6.6543470250E+00   -6.6420696305E+00   -6.6298374567E+00
-6.6176502543E+00   -6.6055077757E+00   -6.5934097751E+00   -6.5813560087E+00
-6.5693462342E+00   -6.5573802112E+00   -6.5454577012E+00   -6.5335784671E+00
-6.5217422739E+00   -6.5099488879E+00   -6.4981980774E+00   -6.4864896122E+00
-6.4748232639E+00   -6.4631988055E+00   -6.4516160120E+00   -6.4400746596E+00
-6.4285745264E+00   -6.4171153919E+00   -6.4056970374E+00   -6.3943192453E+00
-6.3829818001E+00   -6.3716844875E+00   -6.3604270947E+00   -6.3492094106E+00
-6.3380312253E+00   -6.3268923308E+00   -6.3157925200E+00   -6.3047315878E+00
-6.2937093302E+00   -6.2827255446E+00   -6.2717800301E+00   -6.2608725870E+00
-6.2500030169E+00   -6.2391711230E+00   -6.2283767096E+00   -6.2176195826E+00
-6.2068995492E+00   -6.1962164177E+00   -6.1855699981E+00   -6.1749601012E+00
-6.1643865396E+00   -6.1538491270E+00   -6.1433476781E+00   -6.1328820093E+00
-6.1224519380E+00   -6.1120572828E+00   -6.1016978637E+00   -6.0913735019E+00
-6.0810840196E+00   -6.0708292404E+00   -6.0606089890E+00   -6.0504230914E+00
-6.0402713746E+00   -6.0301536668E+00   -6.0200697975E+00   -6.0100195972E+00
</PP_LOCAL>
<PP_NONLOCAL>
<PP_BETA.1
type="real"
size="600"
columns="4"
index="1"
angular_momentum="0"
cutoff_radius_index=" 224"
cutoff_radius="    2.2300000000E+00" >
1.2121137427E-12    1.1242469178E-02    2.2519561570E-02    3.3865760441E-02
4.5315269523E-02    5.6901874152E-02    6.8658803495E-02    8.0618594226E-02
9.2812956011E-02    1.0527263916E-01    1.1802730478E-01    1.3110539785E-01
1.4453402351E-01    1.5833882686E-01    1.7254387680E-01    1.8717155401E-01
2.0224244363E-01    2.1777523278E-01    2.3378661338E-01    2.5029119054E-01
2.6730139676E-01    2.8482741237E-01    3.0287709243E-01    3.2145590032E-01
3.4056684836E-01    3.6021044576E-01    3.8038465395E-01    4.0108484980E-01
4.2230379661E-01    4.4403162339E-01    4.6625581238E-01    4.8896119503E-01
5.1212995660E-01    5.3574164952E-01    5.5977321548E-01    5.8419901645E-01
6.0899087458E-01    6.3411812112E-01    6.5954765410E-01    6.8524400508E-01
7.1116941453E-01    7.3728391609E-01    7.6354542931E-01    7.8990986085E-01
8.1633121392E-01    8.4276170572E-01    8.6915189272E-01    8.9545080327E-01
9.2160607754E-01    9.4756411413E-01    9.7327022323E-01    9.9866878570E-01
1.0237034178E+00    1.0483171411E+00    1.0724525568E+00    1.0960520242E+00
1.1190578432E+00    1.1414124387E+00    1.1630585486E+00    1.1839394128E+00
1.2039989632E+00    1.2231820149E+00    1.2414344565E+00    1.2587034401E+00
1.2749375687E+00    1.2900870831E+00    1.3041040438E+00    1.3169425111E+00
1.3285587191E+00    1.3389112463E+00    1.3479611794E+00    1.3556722706E+00
1.3620110889E+00    1.3669471622E+00    1.3704531125E+00    1.3725047807E+00
1.3730813434E+00    1.3721654180E+00    1.3697431588E+00    1.3658043407E+00
1.3603424320E+00    1.3533546553E+00    1.3448420359E+00    1.3348094375E+00
1.3232655854E+00    1.3102230761E+00    1.2956983740E+00    1.2797117942E+00
1.2622874725E+00    1.2434533213E+00    1.2232409724E+00    1.2016857060E+00
1.1788263669E+00    1.1547052676E+00    1.1293680785E+00    1.1028637054E+00
1.0752441559E+00    1.0465643930E+00    1.0168821780E+00    9.8625790311E-01
9.5475441315E-01    9.2243681872E-01    8.8937229986E-01    8.5562990201E-01
8.2128032450E-01    7.8639570247E-01    7.5104938312E-01    7.1531569705E-01
6.7926972549E-01    6.4298706451E-01    6.0654358694E-01    5.7001520303E-01
5.3347762072E-01    4.9700610650E-01    4.6067524785E-01    4.2455871803E-01
3.8872904442E-01    3.5325738107E-01    3.1821328656E-01    2.8366450797E-01
2.4967677180E-01    2.1631358282E-01    1.8363603145E-01    1.5170261066E-01
1.2056904295E-01    9.0288118195E-02    6.0909542951E-02    3.2479801905E-02
5.0420318749E-03   -2.1364091012E-02   -4.6702450609E-02   -7.0940576127E-02
-9.4049713224E-02   -1.1600488063E-01   -1.3678491208E-01   -1.5637248340E-01
-1.7475412475E-01   -1.9192021799E-01   -2.0786497918E-01   -2.2258642650E-01
-2.3608633363E-01   -2.4837016888E-01   -2.5944702051E-01   -2.6932950844E-01
-2.7803368295E-01   -2.8557891069E-01   -2.9198774879E-01   -2.9728580737E-01
-3.0150160138E-01   -3.0466639222E-01   -3.0681402004E-01   -3.0798072742E-01
-3.0820497520E-01   -3.0752725131E-01   -3.0598987355E-01   -3.0363678701E-01
-3.0051335718E-01   -2.9666615960E-01   -2.9214276690E-01   -2.8699153431E-01
-2.8126138437E-01   -2.7500159187E-01   -2.6826156984E-01   -2.6109065765E-01
-2.5353791174E-01   -2.4565190032E-01   -2.3748050234E-01   -2.2907071198E-01
-2.2046844901E-01   -2.1171837620E-01   -2.0286372391E-01   -1.9394612312E-01
-1.8500544684E-01   -1.7607966117E-01   -1.6720468552E-01   -1.5841426339E-01
-1.4973984733E-01   -1.4121047514E-01   -1.3285272016E-01   -1.2469056183E-01
-1.1674523041E-01   -1.0903535721E-01   -1.0157707170E-01   -9.4384141184E-02
-8.7468206931E-02   -8.0838862292E-02   -7.4503645994E-02   -6.8468099438E-02
-6.2735861981E-02   -5.7308736456E-02   -5.2186780376E-02   -4.7368397142E-02
-4.2850435125E-02   -3.8628291949E-02   -3.4696023998E-02   -3.1046460192E-02
-2.7671319405E-02   -2.4561331037E-02   -2.1706357771E-02   -1.9095520089E-02
-1.6717321708E-02   -1.4559775233E-02   -1.2610527412E-02   -1.0856983298E-02
-9.2864283956E-03   -7.8861487469E-03   -6.6435473423E-03   -5.5462572546E-03