<UPF version="2.0.1">
<PP_INFO>
NOTE!!!!
This file is trimmed with a mesh size of 600 from the original version.
Trimming performed at 2023-03-31 09:10:05.091559 by trim_upf.py version 0.1.0

This pseudopotential file has been produced using the code
ONCVPSP  (Optimized Norm-Conservinng Vanderbilt PSeudopotential)
scalar-relativistic version 3.3.0 08/16/2017 by D. R. Hamann
The code is available through a link at URL www.mat-simresearch.com.
Documentation with the package provides a full discription of the
input data below.
While it is not required under the terms of the GNU GPL, it is
suggested that you cite D. R. Hamann, Phys. Rev. B 88, 085117 (2013)
in any publication using these pseudopotentials.
<PP_INPUTFILE>
# ATOM AND REFERENCE CONFIGURATION
# atsym  z   nc   nv     iexc    psfile
Ru 44.00    6    4       4      upf
#
#   n    l    f        energy (Ha)
1    0    2.00
2    0    2.00
2    1    6.00
3    0    2.00
3    1    6.00
3    2   10.00
4    0    2.00
4    1    6.00
4    2    7.00
5    0    1.00
#
# PSEUDOPOTENTIAL AND OPTIMIZATION
# lmax
2
#
#   l,   rc,      ep,       ncon, nbas, qcut
0   1.35000  -2.80659    4    8   8.70000
1   1.40000  -1.70576    4    8   9.00000
2   1.30000  -0.19118    4    7   9.00000
#
# LOCAL POTENTIAL
# lloc, lpopt,  rc(5),   dvloc0
4    5   1.30000      0.00000
#
# VANDERBILT-KLEINMAN-BYLANDER PROJECTORs
# l, nproj, debl
0    2   2.65079
1    2   2.50000
2    2   1.50000
#
# MODEL CORE CHARGE
# icmod, fcfact, rcfact
3   7.00000   1.24000
#
# LOG DERIVATIVE ANALYSIS
# epsh1, epsh2, depsh
-12.00   12.00    0.02
#
# OUTPUT GRID
# rlmax, drl
6.00    0.01
#
# TEST CONFIGURATIONS
# ncnf
0
# nvcnf
#   n    l    f
</PP_INPUTFILE>
</PP_INFO>
<!--                               -->
<!-- END OF HUMAN READABLE SECTION -->
<!--                               -->
<PP_HEADER
generated="Generated using ONCVPSP code by D. R. Hamann"
author="anonymous"
date="171031"
comment=""
element="Ru"
pseudo_type="NC"
relativistic="scalar"
is_ultrasoft="F"
is_paw="F"
is_coulomb="F"
has_so="F"
has_wfc="F"
has_gipaw="F"
core_correction="T"
functional="PBE"
z_valence="   16.00"
total_psenergy="  -1.89839009303E+02"
rho_cutoff="   1.58300000000E+01"
l_max="2"
l_local="-1"
mesh_size="   600"
number_of_wfc="4"
number_of_proj="6"/>
<PP_MESH>
<PP_R type="real"  size="600" columns="8">
0.0000    0.0100    0.0200    0.0300    0.0400    0.0500    0.0600    0.0700
0.0800    0.0900    0.1000    0.1100    0.1200    0.1300    0.1400    0.1500
0.1600    0.1700    0.1800    0.1900    0.2000    0.2100    0.2200    0.2300
0.2400    0.2500    0.2600    0.2700    0.2800    0.2900    0.3000    0.3100
0.3200    0.3300    0.3400    0.3500    0.3600    0.3700    0.3800    0.3900
0.4000    0.4100    0.4200    0.4300    0.4400    0.4500    0.4600    0.4700
0.4800    0.4900    0.5000    0.5100    0.5200    0.5300    0.5400    0.5500
0.5600    0.5700    0.5800    0.5900    0.6000    0.6100    0.6200    0.6300
0.6400    0.6500    0.6600    0.6700    0.6800    0.6900    0.7000    0.7100
0.7200    0.7300    0.7400    0.7500    0.7600    0.7700    0.7800    0.7900
0.8000    0.8100    0.8200    0.8300    0.8400    0.8500    0.8600    0.8700
0.8800    0.8900    0.9000    0.9100    0.9200    0.9300    0.9400    0.9500
0.9600    0.9700    0.9800    0.9900    1.0000    1.0100    1.0200    1.0300
1.0400    1.0500    1.0600    1.0700    1.0800    1.0900    1.1000    1.1100
1.1200    1.1300    1.1400    1.1500    1.1600    1.1700    1.1800    1.1900
1.2000    1.2100    1.2200    1.2300    1.2400    1.2500    1.2600    1.2700
1.2800    1.2900    1.3000    1.3100    1.3200    1.3300    1.3400    1.3500
1.3600    1.3700    1.3800    1.3900    1.4000    1.4100    1.4200    1.4300
1.4400    1.4500    1.4600    1.4700    1.4800    1.4900    1.5000    1.5100
1.5200    1.5300    1.5400    1.5500    1.5600    1.5700    1.5800    1.5900
1.6000    1.6100    1.6200    1.6300    1.6400    1.6500    1.6600    1.6700
1.6800    1.6900    1.7000    1.7100    1.7200    1.7300    1.7400    1.7500
1.7600    1.7700    1.7800    1.7900    1.8000    1.8100    1.8200    1.8300
1.8400    1.8500    1.8600    1.8700    1.8800    1.8900    1.9000    1.9100
1.9200    1.9300    1.9400    1.9500    1.9600    1.9700    1.9800    1.9900
2.0000    2.0100    2.0200    2.0300    2.0400    2.0500    2.0600    2.0700
2.0800    2.0900    2.1000    2.1100    2.1200    2.1300    2.1400    2.1500
2.1600    2.1700    2.1800    2.1900    2.2000    2.2100    2.2200    2.2300
2.2400    2.2500    2.2600    2.2700    2.2800    2.2900    2.3000    2.3100
2.3200    2.3300    2.3400    2.3500    2.3600    2.3700    2.3800    2.3900
2.4000    2.4100    2.4200    2.4300    2.4400    2.4500    2.4600    2.4700
2.4800    2.4900    2.5000    2.5100    2.5200    2.5300    2.5400    2.5500
2.5600    2.5700    2.5800    2.5900    2.6000    2.6100    2.6200    2.6300
2.6400    2.6500    2.6600    2.6700    2.6800    2.6900    2.7000    2.7100
2.7200    2.7300    2.7400    2.7500    2.7600    2.7700    2.7800    2.7900
2.8000    2.8100    2.8200    2.8300    2.8400    2.8500    2.8600    2.8700
2.8800    2.8900    2.9000    2.9100    2.9200    2.9300    2.9400    2.9500
2.9600    2.9700    2.9800    2.9900    3.0000    3.0100    3.0200    3.0300
3.0400    3.0500    3.0600    3.0700    3.0800    3.0900    3.1000    3.1100
3.1200    3.1300    3.1400    3.1500    3.1600    3.1700    3.1800    3.1900
3.2000    3.2100    3.2200    3.2300    3.2400    3.2500    3.2600    3.2700
3.2800    3.2900    3.3000    3.3100    3.3200    3.3300    3.3400    3.3500
3.3600    3.3700    3.3800    3.3900    3.4000    3.4100    3.4200    3.4300
3.4400    3.4500    3.4600    3.4700    3.4800    3.4900    3.5000    3.5100
3.5200    3.5300    3.5400    3.5500    3.5600    3.5700    3.5800    3.5900
3.6000    3.6100    3.6200    3.6300    3.6400    3.6500    3.6600    3.6700
3.6800    3.6900    3.7000    3.7100    3.7200    3.7300    3.7400    3.7500
3.7600    3.7700    3.7800    3.7900    3.8000    3.8100    3.8200    3.8300
3.8400    3.8500    3.8600    3.8700    3.8800    3.8900    3.9000    3.9100
3.9200    3.9300    3.9400    3.9500    3.9600    3.9700    3.9800    3.9900
4.0000    4.0100    4.0200    4.0300    4.0400    4.0500    4.0600    4.0700
4.0800    4.0900    4.1000    4.1100    4.1200    4.1300    4.1400    4.1500
4.1600    4.1700    4.1800    4.1900    4.2000    4.2100    4.2200    4.2300
4.2400    4.2500    4.2600    4.2700    4.2800    4.2900    4.3000    4.3100
4.3200    4.3300    4.3400    4.3500    4.3600    4.3700    4.3800    4.3900
4.4000    4.4100    4.4200    4.4300    4.4400    4.4500    4.4600    4.4700
4.4800    4.4900    4.5000    4.5100    4.5200    4.5300    4.5400    4.5500
4.5600    4.5700    4.5800    4.5900    4.6000    4.6100    4.6200    4.6300
4.6400    4.6500    4.6600    4.6700    4.6800    4.6900    4.7000    4.7100
4.7200    4.7300    4.7400    4.7500    4.7600    4.7700    4.7800    4.7900
4.8000    4.8100    4.8200    4.8300    4.8400    4.8500    4.8600    4.8700
4.8800    4.8900    4.9000    4.9100    4.9200    4.9300    4.9400    4.9500
4.9600    4.9700    4.9800    4.9900    5.0000    5.0100    5.0200    5.0300
5.0400    5.0500    5.0600    5.0700    5.0800    5.0900    5.1000    5.1100
5.1200    5.1300    5.1400    5.1500    5.1600    5.1700    5.1800    5.1900
5.2000    5.2100    5.2200    5.2300    5.2400    5.2500    5.2600    5.2700
5.2800    5.2900    5.3000    5.3100    5.3200    5.3300    5.3400    5.3500
5.3600    5.3700    5.3800    5.3900    5.4000    5.4100    5.4200    5.4300
5.4400    5.4500    5.4600    5.4700    5.4800    5.4900    5.5000    5.5100
5.5200    5.5300    5.5400    5.5500    5.5600    5.5700    5.5800    5.5900
5.6000    5.6100    5.6200    5.6300    5.6400    5.6500    5.6600    5.6700
5.6800    5.6900    5.7000    5.7100    5.7200    5.7300    5.7400    5.7500
5.7600    5.7700    5.7800    5.7900    5.8000    5.8100    5.8200    5.8300
5.8400    5.8500    5.8600    5.8700    5.8800    5.8900    5.9000    5.9100
5.9200    5.9300    5.9400    5.9500    5.9600    5.9700    5.9800    5.9900
</PP_R>
<PP_RAB type="real"  size="600" columns="8">
0.0100    0.0100    0.0100    0.0100    0.0100    0.0100    0.0100    0.0100
0.0100    0.0100    0.0100    0.0100    0.0100    0.0100    0.0100    0.0100
0.0100    0.0100    0.0100    0.0100    0.0100    0.0100    0.0100    0.0100
0.0100    0.0100    0.0100    0.0100    0.0100    0.0100    0.0100    0.0100
0.0100    0.0100    0.0100    0.0100    0.0100    0.0100    0.0100    0.0100
0.0100    0.0100    0.0100    0.0100    0.0100    0.0100    0.0100    0.0100
0.0100    0.0100    0.0100    0.0100    0.0100    0.0100    0.0100    0.0100
0.0100    0.0100    0.0100    0.0100    0.0100    0.0100    0.0100    0.0100
0.0100    0.0100    0.0100    0.0100    0.0100    0.0100    0.0100    0.0100
0.0100    0.0100    0.0100    0.0100    0.0100    0.0100    0.0100    0.0100
0.0100    0.0100    0.0100    0.0100    0.0100    0.0100    0.0100    0.0100
0.0100    0.0100    0.0100    0.0100    0.0100    0.0100    0.0100    0.0100
0.0100    0.0100    0.0100    0.0100    0.0100    0.0100    0.0100    0.0100
0.0100    0.0100    0.0100    0.0100    0.0100    0.0100    0.0100    0.0100
0.0100    0.0100    0.0100    0.0100    0.0100    0.0100    0.0100    0.0100
0.0100    0.0100    0.0100    0.0100    0.0100    0.0100    0.0100    0.0100
0.0100    0.0100    0.0100    0.0100    0.0100    0.0100    0.0100    0.0100
0.0100    0.0100    0.0100    0.0100    0.0100    0.0100    0.0100    0.0100
0.0100    0.0100    0.0100    0.0100    0.0100    0.0100    0.0100    0.0100
0.0100    0.0100    0.0100    0.0100    0.0100    0.0100    0.0100    0.0100
0.0100    0.0100    0.0100    0.0100    0.0100    0.0100    0.0100    0.0100
0.0100    0.0100    0.0100    0.0100    0.0100    0.0100    0.0100    0.0100
0.0100    0.0100    0.0100    0.0100    0.0100    0.0100    0.0100    0.0100
0.0100    0.0100    0.0100    0.0100    0.0100    0.0100    0.0100    0.0100
0.0100    0.0100    0.0100    0.0100    0.0100    0.0100    0.0100    0.0100
0.0100    0.0100    0.0100    0.0100    0.0100    0.0100    0.0100    0.0100
0.0100    0.0100    0.0100    0.0100    0.0100    0.0100    0.0100    0.0100
0.0100    0.0100    0.0100    0.0100    0.0100    0.0100    0.0100    0.0100
0.0100    0.0100    0.0100    0.0100    0.0100    0.0100    0.0100    0.0100
0.0100    0.0100    0.0100    0.0100    0.0100    0.0100    0.0100    0.0100
0.0100    0.0100    0.0100    0.0100    0.0100    0.0100    0.0100    0.0100
0.0100    0.0100    0.0100    0.0100    0.0100    0.0100    0.0100    0.0100
0.0100    0.0100    0.0100    0.0100    0.0100    0.0100    0.0100    0.0100
0.0100    0.0100    0.0100    0.0100    0.0100    0.0100    0.0100    0.0100
0.0100    0.0100    0.0100    0.0100    0.0100    0.0100    0.0100    0.0100
0.0100    0.0100    0.0100    0.0100    0.0100    0.0100    0.0100    0.0100
0.0100    0.0100    0.0100    0.0100    0.0100    0.0100    0.0100    0.0100
0.0100    0.0100    0.0100    0.0100    0.0100    0.0100    0.0100    0.0100
0.0100    0.0100    0.0100    0.0100    0.0100    0.0100    0.0100    0.0100
0.0100    0.0100    0.0100    0.0100    0.0100    0.0100    0.0100    0.0100
0.0100    0.0100    0.0100    0.0100    0.0100    0.0100    0.0100    0.0100
0.0100    0.0100    0.0100    0.0100    0.0100    0.0100    0.0100    0.0100
0.0100    0.0100    0.0100    0.0100    0.0100    0.0100    0.0100    0.0100
0.0100    0.0100    0.0100    0.0100    0.0100    0.0100    0.0100    0.0100
0.0100    0.0100    0.0100    0.0100    0.0100    0.0100    0.0100    0.0100
0.0100    0.0100    0.0100    0.0100    0.0100    0.0100    0.0100    0.0100
0.0100    0.0100    0.0100    0.0100    0.0100    0.0100    0.0100    0.0100
0.0100    0.0100    0.0100    0.0100    0.0100    0.0100    0.0100    0.0100
0.0100    0.0100    0.0100    0.0100    0.0100    0.0100    0.0100    0.0100
0.0100    0.0100    0.0100    0.0100    0.0100    0.0100    0.0100    0.0100
0.0100    0.0100    0.0100    0.0100    0.0100    0.0100    0.0100    0.0100
0.0100    0.0100    0.0100    0.0100    0.0100    0.0100    0.0100    0.0100
0.0100    0.0100    0.0100    0.0100    0.0100    0.0100    0.0100    0.0100
0.0100    0.0100    0.0100    0.0100    0.0100    0.0100    0.0100    0.0100
0.0100    0.0100    0.0100    0.0100    0.0100    0.0100    0.0100    0.0100
0.0100    0.0100    0.0100    0.0100    0.0100    0.0100    0.0100    0.0100
0.0100    0.0100    0.0100    0.0100    0.0100    0.0100    0.0100    0.0100
0.0100    0.0100    0.0100    0.0100    0.0100    0.0100    0.0100    0.0100
0.0100    0.0100    0.0100    0.0100    0.0100    0.0100    0.0100    0.0100
0.0100    0.0100    0.0100    0.0100    0.0100    0.0100    0.0100    0.0100
0.0100    0.0100    0.0100    0.0100    0.0100    0.0100    0.0100    0.0100
0.0100    0.0100    0.0100    0.0100    0.0100    0.0100    0.0100    0.0100
0.0100    0.0100    0.0100    0.0100    0.0100    0.0100    0.0100    0.0100
0.0100    0.0100    0.0100    0.0100    0.0100    0.0100    0.0100    0.0100
0.0100    0.0100    0.0100    0.0100    0.0100    0.0100    0.0100    0.0100
0.0100    0.0100    0.0100    0.0100    0.0100    0.0100    0.0100    0.0100
0.0100    0.0100    0.0100    0.0100    0.0100    0.0100    0.0100    0.0100
0.0100    0.0100    0.0100    0.0100    0.0100    0.0100    0.0100    0.0100
0.0100    0.0100    0.0100    0.0100    0.0100    0.0100    0.0100    0.0100
0.0100    0.0100    0.0100    0.0100    0.0100    0.0100    0.0100    0.0100
0.0100    0.0100    0.0100    0.0100    0.0100    0.0100    0.0100    0.0100
0.0100    0.0100    0.0100    0.0100    0.0100    0.0100    0.0100    0.0100
0.0100    0.0100    0.0100    0.0100    0.0100    0.0100    0.0100    0.0100
0.0100    0.0100    0.0100    0.0100    0.0100    0.0100    0.0100    0.0100
0.0100    0.0100    0.0100    0.0100    0.0100    0.0100    0.0100    0.0100
</PP_RAB>
</PP_MESH>
<PP_LOCAL type="real"  size="600" columns="4">
-5.0062138668E+01   -5.0059978605E+01   -5.0053499455E+01   -5.0042705102E+01
-5.0027601893E+01   -5.0008198581E+01   -4.9984506208E+01   -4.9956537964E+01
-4.9924309015E+01   -4.9887836300E+01   -4.9847138325E+01   -4.9802234934E+01
-4.9753147066E+01   -4.9699896519E+01   -4.9642505702E+01   -4.9580997397E+01
-4.9515394521E+01   -4.9445719906E+01   -4.9371996081E+01   -4.9294245080E+01
-4.9212488260E+01   -4.9126746135E+01   -4.9037038237E+01   -4.8943382992E+01
-4.8845797613E+01   -4.8744298021E+01   -4.8638898780E+01   -4.8529613050E+01
-4.8416452567E+01   -4.8299427630E+01   -4.8178547116E+01   -4.8053818504E+01
-4.7925247921E+01   -4.7792840199E+01   -4.7656598950E+01   -4.7516526654E+01
-4.7372624764E+01   -4.7224893826E+01   -4.7073333605E+01   -4.6917943239E+01
-4.6758721395E+01   -4.6595666447E+01   -4.6428776669E+01   -4.6258050436E+01
-4.6083486446E+01   -4.5905083961E+01   -4.5722843054E+01   -4.5536764877E+01
-4.5346851947E+01   -4.5153108443E+01   -4.4955540520E+01   -4.4754156635E+01
-4.4548967898E+01   -4.4339988420E+01   -4.4127235689E+01   -4.3910730944E+01
-4.3690499568E+01   -4.3466571478E+01   -4.3238981521E+01   -4.3007769866E+01
-4.2772982385E+01   -4.2534671016E+01   -4.2292894107E+01   -4.2047716713E+01
-4.1799210865E+01   -4.1547455769E+01   -4.1292537949E+01   -4.1034551311E+01
-4.0773597130E+01   -4.0509783949E+01   -4.0243227384E+01   -3.9974049848E+01
-3.9702380189E+01   -3.9428353251E+01   -3.9152109372E+01   -3.8873793831E+01
-3.8593556257E+01   -3.8311550025E+01   -3.8027931641E+01   -3.7742860146E+01
-3.7456496539E+01   -3.7169003239E+01   -3.6880543584E+01   -3.6591281388E+01
-3.6301380532E+01   -3.6011004611E+01   -3.5720316624E+01   -3.5429478696E+01
-3.5138651836E+01   -3.4847995720E+01   -3.4557668487E+01   -3.4267826554E+01
-3.3978624424E+01   -3.3690214503E+01   -3.3402746913E+01   -3.3116369286E+01
-3.2831226567E+01   -3.2547460791E+01   -3.2265210856E+01   -3.1984612292E+01
-3.1705797011E+01   -3.1428893063E+01   -3.1154024378E+01   -3.0881310518E+01
-3.0610866416E+01   -3.0342802135E+01   -3.0077222620E+01   -2.9814227464E+01
-2.9553910683E+01   -2.9296360501E+01   -2.9041659152E+01   -2.8789882687E+01
-2.8541100802E+01   -2.8295376679E+01   -2.8052766838E+01   -2.7813321007E+01
-2.7577082000E+01   -2.7344085615E+01   -2.7114360539E+01   -2.6887928268E+01
-2.6664803034E+01   -2.6444991742E+01   -2.6228493924E+01   -2.6015301688E+01
-2.5805399682E+01   -2.5598765064E+01   -2.5395367471E+01   -2.5195168985E+01
-2.4998124157E+01   -2.4804179998E+01   -2.4613276002E+01   -2.4425342358E+01
-2.4240301907E+01   -2.4058073823E+01   -2.3878580970E+01   -2.3701753226E+01
-2.3527527020E+01   -2.3355844188E+01   -2.3186649763E+01   -2.3019879261E+01
-2.2855470740E+01   -2.2693385700E+01   -2.2533594007E+01   -2.2376065475E+01
-2.2220754352E+01   -2.2067605269E+01   -2.1916570773E+01   -2.1767604829E+01
-2.1620661894E+01   -2.1475698032E+01   -2.1332670639E+01   -2.1191538449E+01
-2.1052261510E+01   -2.0914801153E+01   -2.0779119971E+01   -2.0645181782E+01
-2.0512951599E+01   -2.0382395593E+01   -2.0253481053E+01   -2.0126176346E+01
-2.0000450880E+01   -1.9876275051E+01   -1.9753620210E+01   -1.9632458608E+01
-1.9512763358E+01   -1.9394508387E+01   -1.9277668392E+01   -1.9162218795E+01
-1.9048135700E+01   -1.8935395853E+01   -1.8823976600E+01   -1.8713855848E+01
-1.8605012031E+01   -1.8497424074E+01   -1.8391071361E+01   -1.8285933705E+01
-1.8181991324E+01   -1.8079224814E+01   -1.7977615126E+01   -1.7877143553E+01
-1.7777791706E+01   -1.7679541508E+01   -1.7582375174E+01   -1.7486275209E+01
-1.7391224399E+01   -1.7297205801E+01   -1.7204202747E+01   -1.7112198836E+01
-1.7021177940E+01   -1.6931124194E+01   -1.6842022010E+01   -1.6753856068E+01
-1.6666611326E+01   -1.6580273018E+01   -1.6494826660E+01   -1.6410258049E+01
-1.6326553271E+01   -1.6243698696E+01   -1.6161680984E+01   -1.6080487087E+01
-1.6000104242E+01   -1.5920519978E+01   -1.5841722110E+01   -1.5763698738E+01
-1.5686438242E+01   -1.5609929279E+01   -1.5534160777E+01   -1.5459121930E+01
-1.5384802189E+01   -1.5311191255E+01   -1.5238279074E+01   -1.5166055822E+01
-1.5094511902E+01   -1.5023637930E+01   -1.4953424727E+01   -1.4883863308E+01
-1.4814944873E+01   -1.4746660797E+01   -1.4679002620E+01   -1.4611962038E+01
-1.4545530894E+01   -1.4479701167E+01   -1.4414464969E+01   -1.4349814535E+01
-1.4285742216E+01   -1.4222240475E+01   -1.4159301879E+01   -1.4096919098E+01
-1.4035084902E+01   -1.3973792154E+01   -1.3913033810E+01   -1.3852802921E+01
-1.3793092628E+01   -1.3733896161E+01   -1.3675206845E+01   -1.3617018095E+01
-1.3559323419E+01   -1.3502116421E+01   -1.3445390800E+01   -1.3389140352E+01
-1.3333358973E+01   -1.3278040658E+01   -1.3223179506E+01   -1.3168769720E+01
-1.3114805629E+01   -1.3061281609E+01   -1.3008192132E+01   -1.2955531687E+01
-1.2903295258E+01   -1.2851477928E+01   -1.2800074933E+01   -1.2749080565E+01
-1.2698489052E+01   -1.2648294765E+01   -1.2598492926E+01   -1.2549079316E+01
-1.2500049806E+01   -1.2451401768E+01   -1.2403132717E+01   -1.2355240444E+01
-1.2307720017E+01   -1.2260565439E+01   -1.2213770335E+01   -1.2167329949E+01
-1.2121240776E+01   -1.2075499423E+01   -1.2030102328E+01   -1.1985045386E+01
-1.1940324724E+01   -1.1895936499E+01   -1.1851877079E+01   -1.1808142824E+01
-1.1764730153E+01   -1.1721635529E+01   -1.1678855469E+01   -1.1636386543E+01
-1.1594225368E+01   -1.1552368611E+01   -1.1510812987E+01   -1.1469555257E+01
-1.1428592231E+01   -1.1387920761E+01   -1.1347537746E+01   -1.1307440128E+01
-1.1267624892E+01   -1.1228089065E+01   -1.1188829718E+01   -1.1149843959E+01
-1.1111128938E+01   -1.1072681846E+01   -1.1034499910E+01   -1.0996580397E+01
-1.0958920610E+01   -1.0921517891E+01   -1.0884369615E+01   -1.0847473196E+01
-1.0810826081E+01   -1.0774425751E+01   -1.0738269722E+01   -1.0702355543E+01
-1.0666680795E+01   -1.0631243092E+01   -1.0596040079E+01   -1.0561069432E+01
-1.0526328858E+01   -1.0491816094E+01   -1.0457528907E+01   -1.0423465091E+01
-1.0389622473E+01   -1.0355998903E+01   -1.0322592262E+01   -1.0289400458E+01
-1.0256421424E+01   -1.0223653122E+01   -1.0191093537E+01   -1.0158740682E+01
-1.0126592595E+01   -1.0094647337E+01   -1.0062902995E+01   -1.0031357679E+01
-1.0000009524E+01   -9.9688566865E+00   -9.9378973472E+00   -9.9071297088E+00
-9.8765519961E+00   -9.8461624561E+00   -9.8159593570E+00   -9.7859409883E+00
-9.7561056604E+00   -9.7264517042E+00   -9.6969774708E+00   -9.6676813313E+00
-9.6385616765E+00   -9.6096169162E+00   -9.5808454796E+00   -9.5522458146E+00
-9.5238163873E+00   -9.4955556824E+00   -9.4674622022E+00   -9.4395344669E+00
-9.4117710140E+00   -9.3841703982E+00   -9.3567311910E+00   -9.3294519808E+00
-9.3023313721E+00   -9.2753679858E+00   -9.2485604587E+00   -9.2219074432E+00
-9.1954076075E+00   -9.1690596346E+00   -9.1428622230E+00   -9.1168140857E+00
-9.0909139506E+00   -9.0651605597E+00   -9.0395526696E+00   -9.0140890505E+00
-8.9887684867E+00   -8.9635897761E+00   -8.9385517299E+00   -8.9136531726E+00
-8.8888929419E+00   -8.8642698881E+00   -8.8397828745E+00   -8.8154307767E+00
-8.7912124828E+00   -8.7671268930E+00   -8.7431729195E+00   -8.7193494865E+00
-8.6956555298E+00   -8.6720899967E+00   -8.6486518458E+00   -8.6253400473E+00
-8.6021535820E+00   -8.5790914420E+00   -8.5561526300E+00   -8.5333361592E+00
-8.5106410537E+00   -8.4880663475E+00   -8.4656110853E+00   -8.4432743214E+00
-8.4210551203E+00   -8.3989525565E+00   -8.3769657137E+00   -8.3550936857E+00
-8.3333355754E+00   -8.3116904951E+00   -8.2901575664E+00   -8.2687359199E+00
-8.2474246950E+00   -8.2262230403E+00   -8.2051301129E+00   -8.1841450785E+00
-8.1632671114E+00   -8.1424953944E+00   -8.1218291183E+00   -8.1012674824E+00
-8.0808096939E+00   -8.0604549682E+00   -8.0402025282E+00   -8.0200516050E+00
-8.0000014371E+00   -7.9800512709E+00   -7.9602003599E+00   -7.9404479653E+00
-7.9207933556E+00   -7.9012358064E+00   -7.8817746005E+00   -7.8624090277E+00
-7.8431383849E+00   -7.8239619757E+00   -7.8048791107E+00   -7.7858891070E+00
-7.7669912884E+00   -7.7481849853E+00   -7.7294695345E+00   -7.7108442793E+00
-7.6923085692E+00   -7.6738617600E+00   -7.6555032136E+00   -7.6372322982E+00
-7.6190483876E+00   -7.6009508620E+00   -7.5829391073E+00   -7.5650125150E+00
-7.5471704827E+00   -7.5294124134E+00   -7.5117377159E+00   -7.4941458044E+00
-7.4766360985E+00   -7.4592080235E+00   -7.4418610099E+00   -7.4245944933E+00
-7.4074079147E+00   -7.3903007204E+00   -7.3732723615E+00   -7.3563222944E+00
-7.3394499803E+00   -7.3226548855E+00   -7.3059364810E+00   -7.2892942429E+00
-7.2727276516E+00   -7.2562361928E+00   -7.2398193563E+00   -7.2234766368E+00
-7.2072075336E+00   -7.1910115503E+00   -7.1748881952E+00   -7.1588369806E+00
-7.1428574237E+00   -7.1269490455E+00   -7.1111113715E+00   -7.0953439315E+00
-7.0796462592E+00   -7.0640178926E+00   -7.0484583738E+00   -7.0329672488E+00
-7.0175440675E+00   -7.0021883841E+00   -6.9868997563E+00   -6.9716777460E+00
-6.9565219185E+00   -6.9414318432E+00   -6.9264070932E+00   -6.9114472452E+00
-6.8965518795E+00   -6.8817205801E+00   -6.8669529346E+00   -6.8522485340E+00
-6.8376069730E+00   -6.8230278495E+00   -6.8085107650E+00   -6.7940553244E+00
-6.7796611358E+00   -6.7653278108E+00   -6.7510549641E+00   -6.7368422137E+00
-6.7226891810E+00   -6.7085954902E+00   -6.6945607690E+00   -6.6805846481E+00
-6.6666667610E+00   -6.6528067448E+00   -6.6390042391E+00   -6.6252588867E+00
-6.6115703334E+00   -6.5979382279E+00   -6.5843622216E+00   -6.5708419690E+00
-6.5573771274E+00   -6.5439673568E+00   -6.5306123200E+00   -6.5173116826E+00
-6.5040651129E+00   -6.4908722819E+00   -6.4777328632E+00   -6.4646465331E+00
-6.4516129705E+00   -6.4386318568E+00   -6.4257028762E+00   -6.4128257152E+00
-6.4000000628E+00   -6.3872256106E+00   -6.3745020527E+00   -6.3618290855E+00
-6.3492064078E+00   -6.3366337209E+00   -6.3241107284E+00   -6.3116371363E+00
-6.2992126528E+00   -6.2868369884E+00   -6.2745098560E+00   -6.2622309707E+00
-6.2500000498E+00   -6.2378168127E+00   -6.2256809812E+00   -6.2135922791E+00
-6.2015504324E+00   -6.1895551691E+00   -6.1776062196E+00   -6.1657033161E+00
-6.1538461928E+00   -6.1420345864E+00   -6.1302682350E+00   -6.1185468792E+00
-6.1068702613E+00   -6.0952381257E+00   -6.0836502187E+00   -6.0721062884E+00
-6.0606060851E+00   -6.0491493608E+00   -6.0377358692E+00   -6.0263653663E+00
-6.0150376095E+00   -6.0037523583E+00   -5.9925093738E+00   -5.9813084191E+00
-5.9701492589E+00   -5.9590316597E+00   -5.9479553898E+00   -5.9369202191E+00
-5.9259259193E+00   -5.9149722637E+00   -5.9040590275E+00   -5.8931859872E+00
-5.8823529212E+00   -5.8715596095E+00   -5.8608058336E+00   -5.8500913767E+00
-5.8394160235E+00   -5.8287795604E+00   -5.8181817753E+00   -5.8076224575E+00
-5.7971013979E+00   -5.7866183891E+00   -5.7761732250E+00   -5.7657657009E+00
-5.7553956139E+00   -5.7450627623E+00   -5.7347669459E+00   -5.7245079659E+00
-5.7142856250E+00   -5.7040997272E+00   -5.6939500781E+00   -5.6838364845E+00
-5.6737587545E+00   -5.6637166978E+00   -5.6537101253E+00   -5.6437388492E+00
-5.6338026831E+00   -5.6239014419E+00   -5.6140349418E+00   -5.6042030003E+00
-5.5944054360E+00   -5.5846420691E+00   -5.5749127207E+00   -5.5652172134E+00
-5.5555553710E+00   -5.5459270184E+00   -5.5363319817E+00   -5.5267700885E+00
-5.5172411671E+00   -5.5077450475E+00   -5.4982815604E+00   -5.4888505380E+00
-5.4794518136E+00   -5.4700852214E+00   -5.4607505970E+00   -5.4514477770E+00
-5.4421765992E+00   -5.4329369023E+00   -5.4237285263E+00   -5.4145513123E+00
-5.4054051022E+00   -5.3962897393E+00   -5.3872050678E+00   -5.3781509328E+00
-5.3691271808E+00   -5.3601336590E+00   -5.3511702158E+00   -5.3422367005E+00
</PP_LOCAL>
<PP_NONLOCAL>
<PP_BETA.1
type="real"
size="600"
columns="4"
index="1"
angular_momentum="0"
cutoff_radius_index=" 144"
cutoff_radius="    1.4300000000E+00" >
-8.4731277550E-10    7.1797329269E-02    1.4342826839E-01    2.1472734746E-01
2.8553092434E-01    3.5567806690E-01    4.2501139805E-01    4.9337789196E-01
5.6062961103E-01    6.2662437399E-01    6.9122634688E-01    7.5430654979E-01
8.1574327397E-01    8.7542240519E-01    9.3323765121E-01    9.8909067261E-01
1.0428911180E+00    1.0945565667E+00    1.1440123824E+00    1.1911914851E+00
1.2360340476E+00    1.2784871253E+00    1.3185042306E+00    1.3560448608E+00
1.3910739931E+00    1.4235615577E+00    1.4534819028E+00    1.4808132635E+00
1.5055372482E+00    1.5276383546E+00    1.5471035267E+00    1.5639217656E+00
1.5780838025E+00    1.5895818435E+00    1.5984093943E+00    1.6045611699E+00
1.6080330949E+00    1.6088223948E+00    1.6069277819E+00    1.6023497316E+00
1.5950908479E+00    1.5851563126E+00    1.5725544096E+00    1.5572971186E+00
1.5394007643E+00    1.5188867116E+00    1.4957820923E+00    1.4701205495E+00
1.4419429830E+00    1.4112982819E+00    1.3782440254E+00    1.3428471373E+00
1.3051844769E+00    1.2653433506E+00    1.2234219285E+00    1.1795295532E+00
1.1337869261E+00    1.0863261627E+00    1.0372907036E+00    9.8683507784E-01
9.3512451039E-01    8.8233437210E-01    8.2864947159E-01    7.7426319077E-01
7.1937646893E-01    6.6419664239E-01    6.0893614937E-01    5.5381111229E-01
4.9903981167E-01    4.4484106827E-01    3.9143255174E-01    3.3902903581E-01
2.8784062154E-01    2.3807095088E-01    1.8991543402E-01    1.4355951399E-01
9.9176992277E-02    5.6928438769E-02    1.6959708679E-02   -2.0599411881E-02
-5.5636411524E-02   -8.8057091922E-02   -1.1778642244E-01   -1.4476919700E-01
-1.6897048172E-01   -1.9037584463E-01   -2.0899136186E-01   -2.2484339762E-01
-2.3797815883E-01   -2.4846102803E-01   -2.5637568184E-01   -2.6182300525E-01
-2.6491981480E-01   -2.6579740704E-01   -2.6459995091E-01   -2.6148274519E-01
-2.5661036439E-01   -2.5015471788E-01   -2.4229304881E-01   -2.3320590002E-01
-2.2307507486E-01   -2.1208162102E-01   -2.0040386498E-01   -1.8821552419E-01
-1.7568392271E-01   -1.6296833459E-01   -1.5021847737E-01   -1.3757317550E-01
-1.2515921114E-01   -1.1309037658E-01   -1.0146673952E-01   -9.0374129047E-02
-7.9883846563E-02   -7.0052602202E-02   -6.0922673787E-02   -5.2522282057E-02
-4.4866171625E-02   -3.7956384256E-02   -3.1783207915E-02   -2.6326282022E-02
-2.1555836399E-02   -1.7434039331E-02   -1.3916428753E-02   -1.0953397967E-02
-8.4917071378E-03   -6.4759910128E-03   -4.8502326793E-03   -3.5591716636E-03
-2.5496289016E-03   -1.7717031737E-03   -1.1799145035E-03   -7.3364556116E-04
-3.9902019807E-04   -1.5208316767E-04    2.2458131016E-05    1.2994736218E-04
1.2071507443E-04    2.3774202885E-05   -1.6970318195E-05    6.6163042786E-07
3.1655750350E-06   -3.0126649164E-07   -1.8908287532E-07    0.0000000000E+00
0. 0. 0. 0.
0. 0. 0. 0.
0. 0. 0. 0.
0. 0. 0. 0.
0. 0. 0. 0.
0. 0. 0. 0.
0. 0. 0. 0.
0. 0. 0. 0.
0. 0. 0. 0.
0. 0. 0. 0.
0. 0. 0. 0.
0. 0. 0. 0.
0. 0. 0. 0.
0. 0. 0. 0.
0. 0. 0. 0.
0. 0. 0. 0.
0. 0. 0. 0.
0. 0. 0. 0.
0. 0. 0. 0.
0. 0. 0. 0.
0. 0. 0. 0.
0. 0. 0. 0.
0. 0. 0. 0.
0. 0. 0. 0.
0. 0. 0. 0.
0. 0. 0. 0.
0. 0. 0. 0.
0. 0. 0. 0.
0. 0. 0. 0.
0. 0. 0. 0.
0. 0. 0. 0.
0. 0. 0. 0.
0. 0. 0. 0.
0. 0. 0. 0.
0. 0. 0. 0.
0. 0. 0. 0.
0. 0. 0. 0.
0. 0. 0. 0.
0. 0. 0. 0.
0. 0. 0. 0.
0. 0. 0. 0.
0. 0. 0. 0.
0. 0. 0. 0.
0. 0. 0. 0.
0. 0. 0. 0.
0. 0. 0. 0.
0. 0. 0. 0.
0. 0. 0. 0.
0. 0. 0. 0.
0. 0. 0. 0.
0. 0. 0. 0.
0. 0. 0. 0.
0. 0. 0. 0.
0. 0. 0. 0.
0. 0. 0. 0.
0. 0. 0. 0.
0. 0. 0. 0.
0. 0. 0. 0.
0. 0. 0. 0.
0. 0. 0. 0.
0. 0. 0. 0.
0. 0. 0. 0.
0. 0. 0. 0.
0. 0. 0. 0.
0. 0. 0. 0.
0. 0. 0. 0.
0. 0. 0. 0.
0. 0. 0. 0.
0. 0. 0. 0.
0. 0. 0. 0.
0. 0. 0. 0.
0. 0. 0. 0.
0. 0. 0. 0.
0. 0. 0. 0.
0. 0. 0. 0.
0. 0. 0. 0.
0. 0. 0. 0.
0. 0. 0. 0.
0. 0. 0. 0.
0. 0. 0. 0.
0. 0. 0. 0.
0. 0. 0. 0.
0. 0. 0. 0.
0. 0. 0. 0.
0. 0. 0. 0.
0. 0. 0. 0.
0. 0. 0. 0.
0. 0. 0. 0.
0. 0. 0. 0.
0. 0. 0. 0.
0. 0. 0. 0.
0. 0. 0. 0.
0. 0. 0. 0.
0. 0. 0. 0.
0. 0. 0. 0.
0. 0. 0. 0.
0. 0. 0. 0.
0. 0. 0. 0.
0. 0. 0. 0.
0. 0. 0. 0.
0. 0. 0. 0.
0. 0. 0. 0.
0. 0. 0. 0.
0. 0. 0. 0.
0. 0. 0. 0.
0. 0. 0. 0.
0. 0. 0. 0.
0. 0. 0. 0.
0. 0. 0. 0.
0. 0. 0. 0.
0. 0. 0. 0.
0. 0. 0. 0.