<UPF version="2.0.1">
<PP_INFO>
NOTE!!!!
This file is trimmed with a mesh size of 600 from the original version.
Trimming performed at 2023-03-31 09:10:04.939664 by trim_upf.py version 0.1.0

This pseudopotential file has been produced using the code
ONCVPSP  (Optimized Norm-Conservinng Vanderbilt PSeudopotential)
scalar-relativistic version 3.3.0 08/16/2017 by D. R. Hamann
The code is available through a link at URL www.mat-simresearch.com.
Documentation with the package provides a full discription of the
input data below.
While it is not required under the terms of the GNU GPL, it is
suggested that you cite D. R. Hamann, Phys. Rev. B 88, 085117 (2013)
in any publication using these pseudopotentials.
<PP_INPUTFILE>
# ATOM AND REFERENCE CONFIGURATION
# atsym  z   nc   nv     iexc    psfile
S 16.00    3    2       4      upf
#
#   n    l    f        energy (Ha)
1    0    2.00
2    0    2.00
2    1    6.00
3    0    2.00
3    1    4.00
#
# PSEUDOPOTENTIAL AND OPTIMIZATION
# lmax
2
#
#   l,   rc,      ep,       ncon, nbas, qcut
0   1.45000  -0.63416    4    9   6.30000
1   1.45000  -0.25757    4    9   7.60000
2   1.60000   0.15000    4    9   7.00000
#
# LOCAL POTENTIAL
# lloc, lpopt,  rc(5),   dvloc0
4    5   1.40000      0.00000
#
# VANDERBILT-KLEINMAN-BYLANDER PROJECTORs
# l, nproj, debl
0    2   2.00000
1    2   2.00000
2    2   1.00000
#
# MODEL CORE CHARGE
# icmod, fcfact, rcfact
3   6.00000   1.25000
#
# LOG DERIVATIVE ANALYSIS
# epsh1, epsh2, depsh
-12.00   12.00    0.02
#
# OUTPUT GRID
# rlmax, drl
6.00    0.01
#
# TEST CONFIGURATIONS
# ncnf
0
# nvcnf
#   n    l    f
</PP_INPUTFILE>
</PP_INFO>
<!--                               -->
<!-- END OF HUMAN READABLE SECTION -->
<!--                               -->
<PP_HEADER
generated="Generated using ONCVPSP code by D. R. Hamann"
author="anonymous"
date="171031"
comment=""
element="S "
pseudo_type="NC"
relativistic="scalar"
is_ultrasoft="F"
is_paw="F"
is_coulomb="F"
has_so="F"
has_wfc="F"
has_gipaw="F"
core_correction="T"
functional="PBE"
z_valence="    6.00"
total_psenergy="  -2.02159981660E+01"
rho_cutoff="   1.14500000000E+01"
l_max="2"
l_local="-1"
mesh_size="   600"
number_of_wfc="2"
number_of_proj="6"/>
<PP_MESH>
<PP_R type="real"  size="600" columns="8">
0.0000    0.0100    0.0200    0.0300    0.0400    0.0500    0.0600    0.0700
0.0800    0.0900    0.1000    0.1100    0.1200    0.1300    0.1400    0.1500
0.1600    0.1700    0.1800    0.1900    0.2000    0.2100    0.2200    0.2300
0.2400    0.2500    0.2600    0.2700    0.2800    0.2900    0.3000    0.3100
0.3200    0.3300    0.3400    0.3500    0.3600    0.3700    0.3800    0.3900
0.4000    0.4100    0.4200    0.4300    0.4400    0.4500    0.4600    0.4700
0.4800    0.4900    0.5000    0.5100    0.5200    0.5300    0.5400    0.5500
0.5600    0.5700    0.5800    0.5900    0.6000    0.6100    0.6200    0.6300
0.6400    0.6500    0.6600    0.6700    0.6800    0.6900    0.7000    0.7100
0.7200    0.7300    0.7400    0.7500    0.7600    0.7700    0.7800    0.7900
0.8000    0.8100    0.8200    0.8300    0.8400    0.8500    0.8600    0.8700
0.8800    0.8900    0.9000    0.9100    0.9200    0.9300    0.9400    0.9500
0.9600    0.9700    0.9800    0.9900    1.0000    1.0100    1.0200    1.0300
1.0400    1.0500    1.0600    1.0700    1.0800    1.0900    1.1000    1.1100
1.1200    1.1300    1.1400    1.1500    1.1600    1.1700    1.1800    1.1900
1.2000    1.2100    1.2200    1.2300    1.2400    1.2500    1.2600    1.2700
1.2800    1.2900    1.3000    1.3100    1.3200    1.3300    1.3400    1.3500
1.3600    1.3700    1.3800    1.3900    1.4000    1.4100    1.4200    1.4300
1.4400    1.4500    1.4600    1.4700    1.4800    1.4900    1.5000    1.5100
1.5200    1.5300    1.5400    1.5500    1.5600    1.5700    1.5800    1.5900
1.6000    1.6100    1.6200    1.6300    1.6400    1.6500    1.6600    1.6700
1.6800    1.6900    1.7000    1.7100    1.7200    1.7300    1.7400    1.7500
1.7600    1.7700    1.7800    1.7900    1.8000    1.8100    1.8200    1.8300
1.8400    1.8500    1.8600    1.8700    1.8800    1.8900    1.9000    1.9100
1.9200    1.9300    1.9400    1.9500    1.9600    1.9700    1.9800    1.9900
2.0000    2.0100    2.0200    2.0300    2.0400    2.0500    2.0600    2.0700
2.0800    2.0900    2.1000    2.1100    2.1200    2.1300    2.1400    2.1500
2.1600    2.1700    2.1800    2.1900    2.2000    2.2100    2.2200    2.2300
2.2400    2.2500    2.2600    2.2700    2.2800    2.2900    2.3000    2.3100
2.3200    2.3300    2.3400    2.3500    2.3600    2.3700    2.3800    2.3900
2.4000    2.4100    2.4200    2.4300    2.4400    2.4500    2.4600    2.4700
2.4800    2.4900    2.5000    2.5100    2.5200    2.5300    2.5400    2.5500
2.5600    2.5700    2.5800    2.5900    2.6000    2.6100    2.6200    2.6300
2.6400    2.6500    2.6600    2.6700    2.6800    2.6900    2.7000    2.7100
2.7200    2.7300    2.7400    2.7500    2.7600    2.7700    2.7800    2.7900
2.8000    2.8100    2.8200    2.8300    2.8400    2.8500    2.8600    2.8700
2.8800    2.8900    2.9000    2.9100    2.9200    2.9300    2.9400    2.9500
2.9600    2.9700    2.9800    2.9900    3.0000    3.0100    3.0200    3.0300
3.0400    3.0500    3.0600    3.0700    3.0800    3.0900    3.1000    3.1100
3.1200    3.1300    3.1400    3.1500    3.1600    3.1700    3.1800    3.1900
3.2000    3.2100    3.2200    3.2300    3.2400    3.2500    3.2600    3.2700
3.2800    3.2900    3.3000    3.3100    3.3200    3.3300    3.3400    3.3500
3.3600    3.3700    3.3800    3.3900    3.4000    3.4100    3.4200    3.4300
3.4400    3.4500    3.4600    3.4700    3.4800    3.4900    3.5000    3.5100
3.5200    3.5300    3.5400    3.5500    3.5600    3.5700    3.5800    3.5900
3.6000    3.6100    3.6200    3.6300    3.6400    3.6500    3.6600    3.6700
3.6800    3.6900    3.7000    3.7100    3.7200    3.7300    3.7400    3.7500
3.7600    3.7700    3.7800    3.7900    3.8000    3.8100    3.8200    3.8300
3.8400    3.8500    3.8600    3.8700    3.8800    3.8900    3.9000    3.9100
3.9200    3.9300    3.9400    3.9500    3.9600    3.9700    3.9800    3.9900
4.0000    4.0100    4.0200    4.0300    4.0400    4.0500    4.0600    4.0700
4.0800    4.0900    4.1000    4.1100    4.1200    4.1300    4.1400    4.1500
4.1600    4.1700    4.1800    4.1900    4.2000    4.2100    4.2200    4.2300
4.2400    4.2500    4.2600    4.2700    4.2800    4.2900    4.3000    4.3100
4.3200    4.3300    4.3400    4.3500    4.3600    4.3700    4.3800    4.3900
4.4000    4.4100    4.4200    4.4300    4.4400    4.4500    4.4600    4.4700
4.4800    4.4900    4.5000    4.5100    4.5200    4.5300    4.5400    4.5500
4.5600    4.5700    4.5800    4.5900    4.6000    4.6100    4.6200    4.6300
4.6400    4.6500    4.6600    4.6700    4.6800    4.6900    4.7000    4.7100
4.7200    4.7300    4.7400    4.7500    4.7600    4.7700    4.7800    4.7900
4.8000    4.8100    4.8200    4.8300    4.8400    4.8500    4.8600    4.8700
4.8800    4.8900    4.9000    4.9100    4.9200    4.9300    4.9400    4.9500
4.9600    4.9700    4.9800    4.9900    5.0000    5.0100    5.0200    5.0300
5.0400    5.0500    5.0600    5.0700    5.0800    5.0900    5.1000    5.1100
5.1200    5.1300    5.1400    5.1500    5.1600    5.1700    5.1800    5.1900
5.2000    5.2100    5.2200    5.2300    5.2400    5.2500    5.2600    5.2700
5.2800    5.2900    5.3000    5.3100    5.3200    5.3300    5.3400    5.3500
5.3600    5.3700    5.3800    5.3900    5.4000    5.4100    5.4200    5.4300
5.4400    5.4500    5.4600    5.4700    5.4800    5.4900    5.5000    5.5100
5.5200    5.5300    5.5400    5.5500    5.5600    5.5700    5.5800    5.5900
5.6000    5.6100    5.6200    5.6300    5.6400    5.6500    5.6600    5.6700
5.6800    5.6900    5.7000    5.7100    5.7200    5.7300    5.7400    5.7500
5.7600    5.7700    5.7800    5.7900    5.8000    5.8100    5.8200    5.8300
5.8400    5.8500    5.8600    5.8700    5.8800    5.8900    5.9000    5.9100
5.9200    5.9300    5.9400    5.9500    5.9600    5.9700    5.9800    5.9900
</PP_R>
<PP_RAB type="real"  size="600" columns="8">
0.0100    0.0100    0.0100    0.0100    0.0100    0.0100    0.0100    0.0100
0.0100    0.0100    0.0100    0.0100    0.0100    0.0100    0.0100    0.0100
0.0100    0.0100    0.0100    0.0100    0.0100    0.0100    0.0100    0.0100
0.0100    0.0100    0.0100    0.0100    0.0100    0.0100    0.0100    0.0100
0.0100    0.0100    0.0100    0.0100    0.0100    0.0100    0.0100    0.0100
0.0100    0.0100    0.0100    0.0100    0.0100    0.0100    0.0100    0.0100
0.0100    0.0100    0.0100    0.0100    0.0100    0.0100    0.0100    0.0100
0.0100    0.0100    0.0100    0.0100    0.0100    0.0100    0.0100    0.0100
0.0100    0.0100    0.0100    0.0100    0.0100    0.0100    0.0100    0.0100
0.0100    0.0100    0.0100    0.0100    0.0100    0.0100    0.0100    0.0100
0.0100    0.0100    0.0100    0.0100    0.0100    0.0100    0.0100    0.0100
0.0100    0.0100    0.0100    0.0100    0.0100    0.0100    0.0100    0.0100
0.0100    0.0100    0.0100    0.0100    0.0100    0.0100    0.0100    0.0100
0.0100    0.0100    0.0100    0.0100    0.0100    0.0100    0.0100    0.0100
0.0100    0.0100    0.0100    0.0100    0.0100    0.0100    0.0100    0.0100
0.0100    0.0100    0.0100    0.0100    0.0100    0.0100    0.0100    0.0100
0.0100    0.0100    0.0100    0.0100    0.0100    0.0100    0.0100    0.0100
0.0100    0.0100    0.0100    0.0100    0.0100    0.0100    0.0100    0.0100
0.0100    0.0100    0.0100    0.0100    0.0100    0.0100    0.0100    0.0100
0.0100    0.0100    0.0100    0.0100    0.0100    0.0100    0.0100    0.0100
0.0100    0.0100    0.0100    0.0100    0.0100    0.0100    0.0100    0.0100
0.0100    0.0100    0.0100    0.0100    0.0100    0.0100    0.0100    0.0100
0.0100    0.0100    0.0100    0.0100    0.0100    0.0100    0.0100    0.0100
0.0100    0.0100    0.0100    0.0100    0.0100    0.0100    0.0100    0.0100
0.0100    0.0100    0.0100    0.0100    0.0100    0.0100    0.0100    0.0100
0.0100    0.0100    0.0100    0.0100    0.0100    0.0100    0.0100    0.0100
0.0100    0.0100    0.0100    0.0100    0.0100    0.0100    0.0100    0.0100
0.0100    0.0100    0.0100    0.0100    0.0100    0.0100    0.0100    0.0100
0.0100    0.0100    0.0100    0.0100    0.0100    0.0100    0.0100    0.0100
0.0100    0.0100    0.0100    0.0100    0.0100    0.0100    0.0100    0.0100
0.0100    0.0100    0.0100    0.0100    0.0100    0.0100    0.0100    0.0100
0.0100    0.0100    0.0100    0.0100    0.0100    0.0100    0.0100    0.0100
0.0100    0.0100    0.0100    0.0100    0.0100    0.0100    0.0100    0.0100
0.0100    0.0100    0.0100    0.0100    0.0100    0.0100    0.0100    0.0100
0.0100    0.0100    0.0100    0.0100    0.0100    0.0100    0.0100    0.0100
0.0100    0.0100    0.0100    0.0100    0.0100    0.0100    0.0100    0.0100
0.0100    0.0100    0.0100    0.0100    0.0100    0.0100    0.0100    0.0100
0.0100    0.0100    0.0100    0.0100    0.0100    0.0100    0.0100    0.0100
0.0100    0.0100    0.0100    0.0100    0.0100    0.0100    0.0100    0.0100
0.0100    0.0100    0.0100    0.0100    0.0100    0.0100    0.0100    0.0100
0.0100    0.0100    0.0100    0.0100    0.0100    0.0100    0.0100    0.0100
0.0100    0.0100    0.0100    0.0100    0.0100    0.0100    0.0100    0.0100
0.0100    0.0100    0.0100    0.0100    0.0100    0.0100    0.0100    0.0100
0.0100    0.0100    0.0100    0.0100    0.0100    0.0100    0.0100    0.0100
0.0100    0.0100    0.0100    0.0100    0.0100    0.0100    0.0100    0.0100
0.0100    0.0100    0.0100    0.0100    0.0100    0.0100    0.0100    0.0100
0.0100    0.0100    0.0100    0.0100    0.0100    0.0100    0.0100    0.0100
0.0100    0.0100    0.0100    0.0100    0.0100    0.0100    0.0100    0.0100
0.0100    0.0100    0.0100    0.0100    0.0100    0.0100    0.0100    0.0100
0.0100    0.0100    0.0100    0.0100    0.0100    0.0100    0.0100    0.0100
0.0100    0.0100    0.0100    0.0100    0.0100    0.0100    0.0100    0.0100
0.0100    0.0100    0.0100    0.0100    0.0100    0.0100    0.0100    0.0100
0.0100    0.0100    0.0100    0.0100    0.0100    0.0100    0.0100    0.0100
0.0100    0.0100    0.0100    0.0100    0.0100    0.0100    0.0100    0.0100
0.0100    0.0100    0.0100    0.0100    0.0100    0.0100    0.0100    0.0100
0.0100    0.0100    0.0100    0.0100    0.0100    0.0100    0.0100    0.0100
0.0100    0.0100    0.0100    0.0100    0.0100    0.0100    0.0100    0.0100
0.0100    0.0100    0.0100    0.0100    0.0100    0.0100    0.0100    0.0100
0.0100    0.0100    0.0100    0.0100    0.0100    0.0100    0.0100    0.0100
0.0100    0.0100    0.0100    0.0100    0.0100    0.0100    0.0100    0.0100
0.0100    0.0100    0.0100    0.0100    0.0100    0.0100    0.0100    0.0100
0.0100    0.0100    0.0100    0.0100    0.0100    0.0100    0.0100    0.0100
0.0100    0.0100    0.0100    0.0100    0.0100    0.0100    0.0100    0.0100
0.0100    0.0100    0.0100    0.0100    0.0100    0.0100    0.0100    0.0100
0.0100    0.0100    0.0100    0.0100    0.0100    0.0100    0.0100    0.0100
0.0100    0.0100    0.0100    0.0100    0.0100    0.0100    0.0100    0.0100
0.0100    0.0100    0.0100    0.0100    0.0100    0.0100    0.0100    0.0100
0.0100    0.0100    0.0100    0.0100    0.0100    0.0100    0.0100    0.0100
0.0100    0.0100    0.0100    0.0100    0.0100    0.0100    0.0100    0.0100
0.0100    0.0100    0.0100    0.0100    0.0100    0.0100    0.0100    0.0100
0.0100    0.0100    0.0100    0.0100    0.0100    0.0100    0.0100    0.0100
0.0100    0.0100    0.0100    0.0100    0.0100    0.0100    0.0100    0.0100
0.0100    0.0100    0.0100    0.0100    0.0100    0.0100    0.0100    0.0100
0.0100    0.0100    0.0100    0.0100    0.0100    0.0100    0.0100    0.0100
0.0100    0.0100    0.0100    0.0100    0.0100    0.0100    0.0100    0.0100
</PP_RAB>
</PP_MESH>
<PP_LOCAL type="real"  size="600" columns="4">
-1.7561204491E+01   -1.7560369091E+01   -1.7557863633E+01   -1.7553690345E+01
-1.7547852927E+01   -1.7540356528E+01   -1.7531207714E+01   -1.7520414433E+01
-1.7507985966E+01   -1.7493932873E+01   -1.7478266939E+01   -1.7461001102E+01
-1.7442149391E+01   -1.7421726845E+01   -1.7399749441E+01   -1.7376234012E+01
-1.7351198167E+01   -1.7324660211E+01   -1.7296639059E+01   -1.7267154161E+01
-1.7236225416E+01   -1.7203873102E+01   -1.7170117794E+01   -1.7134980297E+01
-1.7098481577E+01   -1.7060642698E+01   -1.7021484759E+01   -1.6981028843E+01
-1.6939295961E+01   -1.6896307015E+01   -1.6852082746E+01   -1.6806643706E+01
-1.6760010227E+01   -1.6712202386E+01   -1.6663239994E+01   -1.6613142569E+01
-1.6561929329E+01   -1.6509619177E+01   -1.6456230700E+01   -1.6401782163E+01
-1.6346291511E+01   -1.6289776369E+01   -1.6232254053E+01   -1.6173741573E+01
-1.6114255644E+01   -1.6053812698E+01   -1.5992428893E+01   -1.5930120130E+01
-1.5866902063E+01   -1.5802790115E+01   -1.5737799492E+01   -1.5671945194E+01
-1.5605242034E+01   -1.5537704647E+01   -1.5469347503E+01   -1.5400184920E+01
-1.5330231077E+01   -1.5259500020E+01   -1.5188005674E+01   -1.5115761852E+01
-1.5042782260E+01   -1.4969080507E+01   -1.4894670108E+01   -1.4819564494E+01
-1.4743777011E+01   -1.4667320931E+01   -1.4590209458E+01   -1.4512455732E+01
-1.4434072840E+01   -1.4355073830E+01   -1.4275471722E+01   -1.4195279535E+01
-1.4114510304E+01   -1.4033177122E+01   -1.3951293176E+01   -1.3868871799E+01
-1.3785926531E+01   -1.3702471196E+01   -1.3618519979E+01   -1.3534087532E+01
-1.3449189078E+01   -1.3363840531E+01   -1.3278058627E+01   -1.3191861063E+01
-1.3105266630E+01   -1.3018295362E+01   -1.2930968664E+01   -1.2843309443E+01
-1.2755342217E+01   -1.2667093206E+01   -1.2578590399E+01   -1.2489863587E+01
-1.2400944365E+01   -1.2311866097E+01   -1.2222663841E+01   -1.2133374239E+01
-1.2044035366E+01   -1.1954686549E+01   -1.1865368154E+01   -1.1776121353E+01
-1.1686987873E+01   -1.1598009730E+01   -1.1509228972E+01   -1.1420687413E+01
-1.1332426392E+01   -1.1244486538E+01   -1.1156907561E+01   -1.1069728071E+01
-1.0982985418E+01   -1.0896715567E+01   -1.0810952994E+01   -1.0725730617E+01
-1.0641079744E+01   -1.0557030050E+01   -1.0473609567E+01   -1.0390844697E+01
-1.0308760234E+01   -1.0227379395E+01   -1.0146723859E+01   -1.0066813816E+01
-9.9876680050E+00   -9.9093037661E+00   -9.8317370809E+00   -9.7549826142E+00
-9.6790537496E+00   -9.6039626206E+00   -9.5297201346E+00   -9.4563359905E+00
-9.3838186887E+00   -9.3121755327E+00   -9.2414126229E+00   -9.1715348418E+00
-9.1025458292E+00   -9.0344479498E+00   -8.9672422506E+00   -8.9009284097E+00
-8.8355046746E+00   -8.7709678014E+00   -8.7073129537E+00   -8.6445337483E+00
-8.5826217993E+00   -8.5215670027E+00   -8.4613586570E+00   -8.4019859167E+00
-8.3434392233E+00   -8.2857034713E+00   -8.2287555303E+00   -8.1725627472E+00
-8.1170905616E+00   -8.0623212695E+00   -8.0082469899E+00   -7.9548633290E+00
-7.9021632256E+00   -7.8501324537E+00   -7.7987594647E+00   -7.7480364996E+00
-7.6979545770E+00   -7.6485040692E+00   -7.5996758916E+00   -7.5514611309E+00
-7.5038508869E+00   -7.4568363329E+00   -7.4104087047E+00   -7.3645592857E+00
-7.3192794005E+00   -7.2745604091E+00   -7.2303937043E+00   -7.1867707085E+00
-7.1436828743E+00   -7.1011216843E+00   -7.0590786536E+00   -7.0175453320E+00
-6.9765133085E+00   -6.9359742151E+00   -6.8959197319E+00   -6.8563415931E+00
-6.8172315921E+00   -6.7785815886E+00   -6.7403835142E+00   -6.7026293791E+00
-6.6653112789E+00   -6.6284214004E+00   -6.5919520286E+00   -6.5558955522E+00
-6.5202444697E+00   -6.4849913953E+00   -6.4501290636E+00   -6.4156503351E+00
-6.3815482002E+00   -6.3478157837E+00   -6.3144463483E+00   -6.2814332977E+00
-6.2487701797E+00   -6.2164506883E+00   -6.1844686653E+00   -6.1528181021E+00
-6.1214931402E+00   -6.0904880717E+00   -6.0597973393E+00   -6.0294155360E+00
-5.9993374037E+00   -5.9695578322E+00   -5.9400718576E+00   -5.9108746598E+00
-5.8819615604E+00   -5.8533280199E+00   -5.8249696340E+00   -5.7968821314E+00
-5.7690613688E+00   -5.7415033283E+00   -5.7142041124E+00   -5.6871599403E+00
-5.6603671432E+00   -5.6338221600E+00   -5.6075215326E+00   -5.5814619014E+00
-5.5556400003E+00   -5.5300526522E+00   -5.5046967643E+00   -5.4795693233E+00
-5.4546673909E+00   -5.4299880991E+00   -5.4055286463E+00   -5.3812862923E+00
-5.3572583547E+00   -5.3334422048E+00   -5.3098352635E+00   -5.2864349983E+00
-5.2632389193E+00   -5.2402445763E+00   -5.2174495562E+00   -5.1948514794E+00
-5.1724479982E+00   -5.1502367942E+00   -5.1282155763E+00   -5.1063820789E+00
-5.0847340605E+00   -5.0632693026E+00   -5.0419856080E+00   -5.0208808009E+00
-4.9999527254E+00   -4.9791992455E+00   -4.9586182450E+00   -4.9382076270E+00
-4.9179653143E+00   -4.8978892495E+00   -4.8779773952E+00   -4.8582277348E+00
-4.8386382728E+00   -4.8192070354E+00   -4.7999320711E+00   -4.7808114518E+00
-4.7618432730E+00   -4.7430256547E+00   -4.7243567425E+00   -4.7058347078E+00
-4.6874577486E+00   -4.6692240904E+00   -4.6511319864E+00   -4.6331797180E+00
-4.6153655954E+00   -4.5976879581E+00   -4.5801451745E+00   -4.5627356428E+00
-4.5454577905E+00   -4.5283100747E+00   -4.5112909816E+00   -4.4943990268E+00
-4.4776327542E+00   -4.4609907365E+00   -4.4444715739E+00   -4.4280738941E+00
-4.4117963510E+00   -4.3956376248E+00   -4.3795964207E+00   -4.3636714678E+00
-4.3478615192E+00   -4.3321653501E+00   -4.3165817573E+00   -4.3011095585E+00
-4.2857475910E+00   -4.2704947108E+00   -4.2553497920E+00   -4.2403117256E+00
-4.2253794186E+00   -4.2105517934E+00   -4.1958277870E+00   -4.1812063499E+00
-4.1666864460E+00   -4.1522670513E+00   -4.1379471537E+00   -4.1237257527E+00
-4.1096018585E+00   -4.0955744917E+00   -4.0816426831E+00   -4.0678054736E+00
-4.0540619136E+00   -4.0404110628E+00   -4.0268519908E+00   -4.0133837763E+00
-4.0000055073E+00   -3.9867162814E+00   -3.9735152055E+00   -3.9604013963E+00
-3.9473739799E+00   -3.9344320925E+00   -3.9215748801E+00   -3.9088014989E+00
-3.8961111156E+00   -3.8835029070E+00   -3.8709760610E+00   -3.8585297758E+00
-3.8461632608E+00   -3.8338757362E+00   -3.8216664333E+00   -3.8095345944E+00
-3.7974794731E+00   -3.7855003340E+00   -3.7735964525E+00   -3.7617671154E+00
-3.7500116199E+00   -3.7383292742E+00   -3.7267193968E+00   -3.7151813167E+00
-3.7037143730E+00   -3.6923179143E+00   -3.6809912989E+00   -3.6697338943E+00
-3.6585450698E+00   -3.6474242203E+00   -3.6363707439E+00   -3.6253840426E+00
-3.6144635713E+00   -3.6036086698E+00   -3.5928187261E+00   -3.5820931581E+00
-3.5714312767E+00   -3.5608327738E+00   -3.5502972447E+00   -3.5398242606E+00
-3.5294135526E+00   -3.5190643029E+00   -3.5087757939E+00   -3.4985473093E+00
-3.4883780042E+00   -3.4782674026E+00   -3.4682150058E+00   -3.4582203302E+00
-3.4482829523E+00   -3.4384024109E+00   -3.4285782565E+00   -3.4188100542E+00
-3.4090973870E+00   -3.3994397990E+00   -3.3898368079E+00   -3.3802879427E+00
-3.3707927224E+00   -3.3613506754E+00   -3.3519613723E+00   -3.3426243729E+00
-3.3333392440E+00   -3.3241055628E+00   -3.3149228972E+00   -3.3057908256E+00
-3.2967089310E+00   -3.2876768006E+00   -3.2786940265E+00   -3.2697602055E+00
-3.2608749384E+00   -3.2520378305E+00   -3.2432484913E+00   -3.2345065346E+00
-3.2258115781E+00   -3.2171632440E+00   -3.2085611583E+00   -3.2000049509E+00
-3.1914942558E+00   -3.1830287108E+00   -3.1746079576E+00   -3.1662316417E+00
-3.1578994121E+00   -3.1496109219E+00   -3.1413658275E+00   -3.1331637889E+00
-3.1250044698E+00   -3.1168875373E+00   -3.1088126620E+00   -3.1007795178E+00
-3.0927877822E+00   -3.0848371357E+00   -3.0769272622E+00   -3.0690578490E+00
-3.0612285863E+00   -3.0534391677E+00   -3.0456892899E+00   -3.0379786524E+00
-3.0303069580E+00   -3.0226739125E+00   -3.0150792245E+00   -3.0075226055E+00
-3.0000037702E+00   -2.9925224357E+00   -2.9850783223E+00   -2.9776711528E+00
-2.9703006530E+00   -2.9629665512E+00   -2.9556685783E+00   -2.9484064682E+00
-2.9411799572E+00   -2.9339887840E+00   -2.9268326902E+00   -2.9197114196E+00
-2.9126247188E+00   -2.9055723365E+00   -2.8985540241E+00   -2.8915695353E+00
-2.8846186262E+00   -2.8777010552E+00   -2.8708165830E+00   -2.8639649727E+00
-2.8571459894E+00   -2.8503594008E+00   -2.8436049764E+00   -2.8368824882E+00
-2.8301917103E+00   -2.8235324187E+00   -2.8169043918E+00   -2.8103074098E+00
-2.8037412552E+00   -2.7972057124E+00   -2.7907005677E+00   -2.7842256097E+00
-2.7777806287E+00   -2.7713654170E+00   -2.7649797687E+00   -2.7586234801E+00
-2.7522963490E+00   -2.7459981754E+00   -2.7397287608E+00   -2.7334879088E+00
-2.7272754246E+00   -2.7210911152E+00   -2.7149347893E+00   -2.7088062576E+00
-2.7027053320E+00   -2.6966318267E+00   -2.6905855570E+00   -2.6845663402E+00
-2.6785739952E+00   -2.6726083424E+00   -2.6666692038E+00   -2.6607564031E+00
-2.6548697654E+00   -2.6490091175E+00   -2.6431742877E+00   -2.6373651057E+00
-2.6315814028E+00   -2.6258230116E+00   -2.6200897665E+00   -2.6143815030E+00
-2.6086980582E+00   -2.6030392707E+00   -2.5974049802E+00   -2.5917950281E+00
-2.5862092570E+00   -2.5806475109E+00   -2.5751096351E+00   -2.5695954762E+00
-2.5641048823E+00   -2.5586377026E+00   -2.5531937876E+00   -2.5477729892E+00
-2.5423751604E+00   -2.5370001555E+00   -2.5316478301E+00   -2.5263180409E+00
-2.5210106459E+00   -2.5157255043E+00   -2.5104624763E+00   -2.5052214235E+00
-2.5000022085E+00   -2.4948046952E+00   -2.4896287484E+00   -2.4844742341E+00
-2.4793410196E+00   -2.4742289731E+00   -2.4691379640E+00   -2.4640678625E+00
-2.4590185402E+00   -2.4539898696E+00   -2.4489817243E+00   -2.4439939788E+00
-2.4390265088E+00   -2.4340791908E+00   -2.4291519026E+00   -2.4242445226E+00
-2.4193569305E+00   -2.4144890068E+00   -2.4096406331E+00   -2.4048116918E+00
-2.4000020663E+00   -2.3952116410E+00   -2.3904403010E+00   -2.3856879327E+00
-2.3809544229E+00   -2.3762396598E+00   -2.3715435322E+00   -2.3668659297E+00
-2.3622067430E+00   -2.3575658636E+00   -2.3529431837E+00   -2.3483385965E+00
-2.3437519960E+00   -2.3391832770E+00   -2.3346323352E+00   -2.3300990669E+00
-2.3255833694E+00   -2.3210851408E+00   -2.3166042799E+00   -2.3121406863E+00
-2.3076942604E+00   -2.3032649033E+00   -2.2988525169E+00   -2.2944570039E+00
-2.2900782677E+00   -2.2857162123E+00   -2.2813707428E+00   -2.2770417645E+00
-2.2727291840E+00   -2.2684329080E+00   -2.2641528445E+00   -2.2598889016E+00
-2.2556409887E+00   -2.2514090154E+00   -2.2471928921E+00   -2.2429925301E+00
-2.2388078410E+00   -2.2346387374E+00   -2.2304851322E+00   -2.2263469394E+00
-2.2222240731E+00   -2.2181164485E+00   -2.2140239812E+00   -2.2099465874E+00
-2.2058841840E+00   -2.2018366885E+00   -2.1978040189E+00   -2.1937860941E+00
-2.1897828331E+00   -2.1857941560E+00   -2.1818199831E+00   -2.1778602356E+00
-2.1739148349E+00   -2.1699837033E+00   -2.1660667635E+00   -2.1621639387E+00
-2.1582751529E+00   -2.1544003304E+00   -2.1505393961E+00   -2.1466922755E+00
-2.1428588946E+00   -2.1390391799E+00   -2.1352330585E+00   -2.1314404579E+00
-2.1276613063E+00   -2.1238955321E+00   -2.1201430646E+00   -2.1164038332E+00
-2.1126777681E+00   -2.1089647999E+00   -2.1052648597E+00   -2.1015778789E+00
-2.0979037896E+00   -2.0942425244E+00   -2.0905940161E+00   -2.0869581983E+00
-2.0833350049E+00   -2.0797243701E+00   -2.0761262289E+00   -2.0725405165E+00
-2.0689671685E+00   -2.0654061212E+00   -2.0618573112E+00   -2.0583206755E+00
-2.0547961515E+00   -2.0512836771E+00   -2.0477831907E+00   -2.0442946309E+00
-2.0408179370E+00   -2.0373530485E+00   -2.0338999053E+00   -2.0304584479E+00
-2.0270286170E+00   -2.0236103538E+00   -2.0202035999E+00   -2.0168082972E+00
-2.0134243882E+00   -2.0100518155E+00   -2.0066905223E+00   -2.0033404521E+00
</PP_LOCAL>
<PP_NONLOCAL>
<PP_BETA.1
type="real"
size="600"
columns="4"
index="1"
angular_momentum="0"
cutoff_radius_index=" 168"
cutoff_radius="    1.6700000000E+00" >
-8.0522779000E-09    5.0239532831E-02    1.0021861511E-01    1.4968171097E-01
1.9838301106E-01    2.4609104053E-01    2.9259296670E-01    3.3769851602E-01
3.8124341771E-01    4.2309230175E-01    4.6314098964E-01    5.0131812923E-01
5.3758613830E-01    5.7194143593E-01    6.0441395553E-01    6.3506594822E-01
6.6399010004E-01    6.9130700094E-01    7.1716201683E-01    7.4172162873E-01
7.6516931441E-01    7.8770105727E-01    8.0952057590E-01    8.3083437333E-01
8.5184670944E-01    8.7275460215E-01    8.9374296247E-01    9.1497996673E-01
9.3661276457E-01    9.5876361486E-01    9.8152653355E-01    1.0049645272E+00
1.0291074740E+00    1.0539507020E+00    1.0794542986E+00    1.1055431723E+00
1.1321078708E+00    1.1590061454E+00    1.1860652345E+00    1.2130848259E+00
1.2398406418E+00    1.2660885792E+00    1.2915693228E+00    1.3160133426E+00
1.3391461744E+00    1.3606938792E+00    1.3803885701E+00    1.3979738940E+00
1.4132103568E+00    1.4258803808E+00    1.4357929884E+00    1.4427880143E+00
1.4467397550E+00    1.4475599764E+00    1.4452002124E+00    1.4396533010E+00
1.4309541196E+00    1.4191794967E+00    1.4044472947E+00    1.3869146730E+00
1.3667755599E+00    1.3442573766E+00    1.3196170712E+00    1.2931365373E+00
1.2651175018E+00    1.2358759820E+00    1.2057364171E+00    1.1750255896E+00
1.1440664570E+00    1.1131720167E+00    1.0826393262E+00    1.0527438014E+00
1.0237339096E+00    9.9582636651E-01    9.6920193860E-01    9.4400194143E-01
9.2032550965E-01    8.9822770126E-01    8.7771848237E-01    8.5876262106E-01
8.4128050170E-01    8.2514985268E-01    8.1020836208E-01    7.9625713831E-01
7.8306495517E-01    7.7037320501E-01    7.5790146850E-01    7.4535359677E-01
7.3242419024E-01    7.1880534961E-01    7.0419356783E-01    6.8829662773E-01
6.7084036855E-01    6.5157518578E-01    6.3028213250E-01    6.0677849710E-01
5.8092274087E-01    5.5261869066E-01    5.2181889493E-01    4.8852706726E-01
4.5279955800E-01    4.1474581309E-01    3.7452779864E-01    3.3235838931E-01
2.8849873863E-01    2.4325466947E-01    1.9697214194E-01    1.5003187375E-01
1.0284320651E-01    5.5837325390E-02    9.4599539284E-03   -3.5836344056E-02
-7.9600113676E-02   -1.2138906187E-01   -1.6077806353E-01   -1.9736697003E-01
-2.3078807048E-01   -2.6071306278E-01   -2.8685940015E-01   -3.0899588649E-01
-3.2694740940E-01   -3.4059871568E-01   -3.4989715094E-01   -3.5485429831E-01
-3.5554648060E-01   -3.5211410967E-01   -3.4475987382E-01   -3.3374579723E-01
-3.1938921749E-01   -3.0205773352E-01   -2.8216322150E-01   -2.6015501908E-01
-2.3651238579E-01   -2.1173638518E-01   -1.8634132361E-01   -1.6084589818E-01
-1.3576421529E-01   -1.1159683683E-01   -8.8822013603E-02   -6.7887287833E-02
-4.9201516362E-02   -3.3138642148E-02   -1.9970760559E-02   -9.9304484016E-03
-3.5053218203E-03   -4.9807306371E-04    2.4845181943E-04    3.6926620392E-05
-7.9305050535E-05    3.3601142507E-06    1.2851606103E-05    4.5073958915E-08
5.2987682573E-08    0.0000000000E+00    0.0000000000E+00    0.0000000000E+00
0.0000000000E+00    0.0000000000E+00    0.0000000000E+00    0.0000000000E+00
0.0000000000E+00    0.0000000000E+00    0.0000000000E+00    0.0000000000E+00
0.0000000000E+00    0.0000000000E+00    0.0000000000E+00    0.0000000000E+00
0. 0. 0. 0.
0. 0. 0. 0.
0. 0. 0. 0.
0. 0. 0. 0.
0. 0. 0. 0.
0. 0. 0. 0.
0. 0. 0. 0.
0. 0. 0. 0.
0. 0. 0. 0.
0. 0. 0. 0.
0. 0. 0. 0.
0. 0. 0. 0.
0. 0. 0. 0.
0. 0. 0. 0.
0. 0. 0. 0.
0. 0. 0. 0.
0. 0. 0. 0.
0. 0. 0. 0.
0. 0. 0. 0.
0. 0. 0. 0.
0. 0. 0. 0.
0. 0. 0. 0.
0. 0. 0. 0.
0. 0. 0. 0.
0. 0. 0. 0.
0. 0. 0. 0.
0. 0. 0. 0.
0. 0. 0. 0.
0. 0. 0. 0.
0. 0. 0. 0.
0. 0. 0. 0.
0. 0. 0. 0.
0. 0. 0. 0.
0. 0. 0. 0.
0. 0. 0. 0.
0. 0. 0. 0.
0. 0. 0. 0.
0. 0. 0. 0.
0. 0. 0. 0.
0. 0. 0. 0.
0. 0. 0. 0.
0. 0. 0. 0.
0. 0. 0. 0.
0. 0. 0. 0.
0. 0. 0. 0.
0. 0. 0. 0.
0. 0. 0. 0.
0. 0. 0. 0.
0. 0. 0. 0.
0. 0. 0. 0.
0. 0. 0. 0.
0. 0. 0. 0.
0. 0. 0. 0.
0. 0. 0. 0.
0. 0. 0. 0.
0. 0. 0. 0.
0. 0. 0. 0.
0. 0. 0. 0.
0. 0. 0. 0.
0. 0. 0. 0.
0. 0. 0. 0.
0. 0. 0. 0.
0. 0. 0. 0.
0. 0. 0. 0.
0. 0. 0. 0.
0. 0. 0. 0.
0. 0. 0. 0.
0. 0. 0. 0.
0. 0. 0. 0.
0. 0. 0. 0.
0. 0. 0. 0.
0. 0. 0. 0.
0. 0. 0. 0.
0. 0. 0. 0.
0. 0. 0. 0.
0. 0. 0. 0.
0. 0. 0. 0.
0. 0. 0. 0.
0. 0. 0. 0.
0. 0. 0. 0.