<UPF version="2.0.1">
<PP_INFO>
NOTE!!!!
This file is trimmed with a mesh size of 600 from the original version.
Trimming performed at 2023-03-31 09:10:05.078981 by trim_upf.py version 0.1.0

This pseudopotential file has been produced using the code
ONCVPSP  (Optimized Norm-Conservinng Vanderbilt PSeudopotential)
scalar-relativistic version 3.3.0 08/16/2017 by D. R. Hamann
The code is available through a link at URL www.mat-simresearch.com.
Documentation with the package provides a full discription of the
input data below.
While it is not required under the terms of the GNU GPL, it is
suggested that you cite D. R. Hamann, Phys. Rev. B 88, 085117 (2013)
in any publication using these pseudopotentials.
<PP_INPUTFILE>
# ATOM AND REFERENCE CONFIGURATION
# atsym  z   nc   nv     iexc    psfile
Sb 51.00    8    3       4      upf
#
#   n    l    f        energy (Ha)
1    0    2.00
2    0    2.00
2    1    6.00
3    0    2.00
3    1    6.00
3    2   10.00
4    0    2.00
4    1    6.00
4    2   10.00
5    0    2.00
5    1    3.00
#
# PSEUDOPOTENTIAL AND OPTIMIZATION
# lmax
2
#
#   l,   rc,      ep,       ncon, nbas, qcut
0   1.80000  -0.47153    4    7   3.20000
1   2.10000  -0.17743    4    7   4.60000
2   1.80000  -1.23138    4    7   9.20000
#
# LOCAL POTENTIAL
# lloc, lpopt,  rc(5),   dvloc0
4    5   1.60000      0.00000
#
# VANDERBILT-KLEINMAN-BYLANDER PROJECTORs
# l, nproj, debl
0    2   0.50000
1    2   3.00000
2    2   1.60000
#
# MODEL CORE CHARGE
# icmod, fcfact, rcfact
3   5.00000   1.41000
#
# LOG DERIVATIVE ANALYSIS
# epsh1, epsh2, depsh
-12.00   12.00    0.02
#
# OUTPUT GRID
# rlmax, drl
6.00    0.01
#
# TEST CONFIGURATIONS
# ncnf
0
# nvcnf
#   n    l    f
</PP_INPUTFILE>
</PP_INFO>
<!--                               -->
<!-- END OF HUMAN READABLE SECTION -->
<!--                               -->
<PP_HEADER
generated="Generated using ONCVPSP code by D. R. Hamann"
author="anonymous"
date="171031"
comment=""
element="Sb"
pseudo_type="NC"
relativistic="scalar"
is_ultrasoft="F"
is_paw="F"
is_coulomb="F"
has_so="F"
has_wfc="F"
has_gipaw="F"
core_correction="T"
functional="PBE"
z_valence="   15.00"
total_psenergy="  -1.60392866500E+02"
rho_cutoff="   1.43300000000E+01"
l_max="2"
l_local="-1"
mesh_size="   600"
number_of_wfc="3"
number_of_proj="6"/>
<PP_MESH>
<PP_R type="real"  size="600" columns="8">
0.0000    0.0100    0.0200    0.0300    0.0400    0.0500    0.0600    0.0700
0.0800    0.0900    0.1000    0.1100    0.1200    0.1300    0.1400    0.1500
0.1600    0.1700    0.1800    0.1900    0.2000    0.2100    0.2200    0.2300
0.2400    0.2500    0.2600    0.2700    0.2800    0.2900    0.3000    0.3100
0.3200    0.3300    0.3400    0.3500    0.3600    0.3700    0.3800    0.3900
0.4000    0.4100    0.4200    0.4300    0.4400    0.4500    0.4600    0.4700
0.4800    0.4900    0.5000    0.5100    0.5200    0.5300    0.5400    0.5500
0.5600    0.5700    0.5800    0.5900    0.6000    0.6100    0.6200    0.6300
0.6400    0.6500    0.6600    0.6700    0.6800    0.6900    0.7000    0.7100
0.7200    0.7300    0.7400    0.7500    0.7600    0.7700    0.7800    0.7900
0.8000    0.8100    0.8200    0.8300    0.8400    0.8500    0.8600    0.8700
0.8800    0.8900    0.9000    0.9100    0.9200    0.9300    0.9400    0.9500
0.9600    0.9700    0.9800    0.9900    1.0000    1.0100    1.0200    1.0300
1.0400    1.0500    1.0600    1.0700    1.0800    1.0900    1.1000    1.1100
1.1200    1.1300    1.1400    1.1500    1.1600    1.1700    1.1800    1.1900
1.2000    1.2100    1.2200    1.2300    1.2400    1.2500    1.2600    1.2700
1.2800    1.2900    1.3000    1.3100    1.3200    1.3300    1.3400    1.3500
1.3600    1.3700    1.3800    1.3900    1.4000    1.4100    1.4200    1.4300
1.4400    1.4500    1.4600    1.4700    1.4800    1.4900    1.5000    1.5100
1.5200    1.5300    1.5400    1.5500    1.5600    1.5700    1.5800    1.5900
1.6000    1.6100    1.6200    1.6300    1.6400    1.6500    1.6600    1.6700
1.6800    1.6900    1.7000    1.7100    1.7200    1.7300    1.7400    1.7500
1.7600    1.7700    1.7800    1.7900    1.8000    1.8100    1.8200    1.8300
1.8400    1.8500    1.8600    1.8700    1.8800    1.8900    1.9000    1.9100
1.9200    1.9300    1.9400    1.9500    1.9600    1.9700    1.9800    1.9900
2.0000    2.0100    2.0200    2.0300    2.0400    2.0500    2.0600    2.0700
2.0800    2.0900    2.1000    2.1100    2.1200    2.1300    2.1400    2.1500
2.1600    2.1700    2.1800    2.1900    2.2000    2.2100    2.2200    2.2300
2.2400    2.2500    2.2600    2.2700    2.2800    2.2900    2.3000    2.3100
2.3200    2.3300    2.3400    2.3500    2.3600    2.3700    2.3800    2.3900
2.4000    2.4100    2.4200    2.4300    2.4400    2.4500    2.4600    2.4700
2.4800    2.4900    2.5000    2.5100    2.5200    2.5300    2.5400    2.5500
2.5600    2.5700    2.5800    2.5900    2.6000    2.6100    2.6200    2.6300
2.6400    2.6500    2.6600    2.6700    2.6800    2.6900    2.7000    2.7100
2.7200    2.7300    2.7400    2.7500    2.7600    2.7700    2.7800    2.7900
2.8000    2.8100    2.8200    2.8300    2.8400    2.8500    2.8600    2.8700
2.8800    2.8900    2.9000    2.9100    2.9200    2.9300    2.9400    2.9500
2.9600    2.9700    2.9800    2.9900    3.0000    3.0100    3.0200    3.0300
3.0400    3.0500    3.0600    3.0700    3.0800    3.0900    3.1000    3.1100
3.1200    3.1300    3.1400    3.1500    3.1600    3.1700    3.1800    3.1900
3.2000    3.2100    3.2200    3.2300    3.2400    3.2500    3.2600    3.2700
3.2800    3.2900    3.3000    3.3100    3.3200    3.3300    3.3400    3.3500
3.3600    3.3700    3.3800    3.3900    3.4000    3.4100    3.4200    3.4300
3.4400    3.4500    3.4600    3.4700    3.4800    3.4900    3.5000    3.5100
3.5200    3.5300    3.5400    3.5500    3.5600    3.5700    3.5800    3.5900
3.6000    3.6100    3.6200    3.6300    3.6400    3.6500    3.6600    3.6700
3.6800    3.6900    3.7000    3.7100    3.7200    3.7300    3.7400    3.7500
3.7600    3.7700    3.7800    3.7900    3.8000    3.8100    3.8200    3.8300
3.8400    3.8500    3.8600    3.8700    3.8800    3.8900    3.9000    3.9100
3.9200    3.9300    3.9400    3.9500    3.9600    3.9700    3.9800    3.9900
4.0000    4.0100    4.0200    4.0300    4.0400    4.0500    4.0600    4.0700
4.0800    4.0900    4.1000    4.1100    4.1200    4.1300    4.1400    4.1500
4.1600    4.1700    4.1800    4.1900    4.2000    4.2100    4.2200    4.2300
4.2400    4.2500    4.2600    4.2700    4.2800    4.2900    4.3000    4.3100
4.3200    4.3300    4.3400    4.3500    4.3600    4.3700    4.3800    4.3900
4.4000    4.4100    4.4200    4.4300    4.4400    4.4500    4.4600    4.4700
4.4800    4.4900    4.5000    4.5100    4.5200    4.5300    4.5400    4.5500
4.5600    4.5700    4.5800    4.5900    4.6000    4.6100    4.6200    4.6300
4.6400    4.6500    4.6600    4.6700    4.6800    4.6900    4.7000    4.7100
4.7200    4.7300    4.7400    4.7500    4.7600    4.7700    4.7800    4.7900
4.8000    4.8100    4.8200    4.8300    4.8400    4.8500    4.8600    4.8700
4.8800    4.8900    4.9000    4.9100    4.9200    4.9300    4.9400    4.9500
4.9600    4.9700    4.9800    4.9900    5.0000    5.0100    5.0200    5.0300
5.0400    5.0500    5.0600    5.0700    5.0800    5.0900    5.1000    5.1100
5.1200    5.1300    5.1400    5.1500    5.1600    5.1700    5.1800    5.1900
5.2000    5.2100    5.2200    5.2300    5.2400    5.2500    5.2600    5.2700
5.2800    5.2900    5.3000    5.3100    5.3200    5.3300    5.3400    5.3500
5.3600    5.3700    5.3800    5.3900    5.4000    5.4100    5.4200    5.4300
5.4400    5.4500    5.4600    5.4700    5.4800    5.4900    5.5000    5.5100
5.5200    5.5300    5.5400    5.5500    5.5600    5.5700    5.5800    5.5900
5.6000    5.6100    5.6200    5.6300    5.6400    5.6500    5.6600    5.6700
5.6800    5.6900    5.7000    5.7100    5.7200    5.7300    5.7400    5.7500
5.7600    5.7700    5.7800    5.7900    5.8000    5.8100    5.8200    5.8300
5.8400    5.8500    5.8600    5.8700    5.8800    5.8900    5.9000    5.9100
5.9200    5.9300    5.9400    5.9500    5.9600    5.9700    5.9800    5.9900
</PP_R>
<PP_RAB type="real"  size="600" columns="8">
0.0100    0.0100    0.0100    0.0100    0.0100    0.0100    0.0100    0.0100
0.0100    0.0100    0.0100    0.0100    0.0100    0.0100    0.0100    0.0100
0.0100    0.0100    0.0100    0.0100    0.0100    0.0100    0.0100    0.0100
0.0100    0.0100    0.0100    0.0100    0.0100    0.0100    0.0100    0.0100
0.0100    0.0100    0.0100    0.0100    0.0100    0.0100    0.0100    0.0100
0.0100    0.0100    0.0100    0.0100    0.0100    0.0100    0.0100    0.0100
0.0100    0.0100    0.0100    0.0100    0.0100    0.0100    0.0100    0.0100
0.0100    0.0100    0.0100    0.0100    0.0100    0.0100    0.0100    0.0100
0.0100    0.0100    0.0100    0.0100    0.0100    0.0100    0.0100    0.0100
0.0100    0.0100    0.0100    0.0100    0.0100    0.0100    0.0100    0.0100
0.0100    0.0100    0.0100    0.0100    0.0100    0.0100    0.0100    0.0100
0.0100    0.0100    0.0100    0.0100    0.0100    0.0100    0.0100    0.0100
0.0100    0.0100    0.0100    0.0100    0.0100    0.0100    0.0100    0.0100
0.0100    0.0100    0.0100    0.0100    0.0100    0.0100    0.0100    0.0100
0.0100    0.0100    0.0100    0.0100    0.0100    0.0100    0.0100    0.0100
0.0100    0.0100    0.0100    0.0100    0.0100    0.0100    0.0100    0.0100
0.0100    0.0100    0.0100    0.0100    0.0100    0.0100    0.0100    0.0100
0.0100    0.0100    0.0100    0.0100    0.0100    0.0100    0.0100    0.0100
0.0100    0.0100    0.0100    0.0100    0.0100    0.0100    0.0100    0.0100
0.0100    0.0100    0.0100    0.0100    0.0100    0.0100    0.0100    0.0100
0.0100    0.0100    0.0100    0.0100    0.0100    0.0100    0.0100    0.0100
0.0100    0.0100    0.0100    0.0100    0.0100    0.0100    0.0100    0.0100
0.0100    0.0100    0.0100    0.0100    0.0100    0.0100    0.0100    0.0100
0.0100    0.0100    0.0100    0.0100    0.0100    0.0100    0.0100    0.0100
0.0100    0.0100    0.0100    0.0100    0.0100    0.0100    0.0100    0.0100
0.0100    0.0100    0.0100    0.0100    0.0100    0.0100    0.0100    0.0100
0.0100    0.0100    0.0100    0.0100    0.0100    0.0100    0.0100    0.0100
0.0100    0.0100    0.0100    0.0100    0.0100    0.0100    0.0100    0.0100
0.0100    0.0100    0.0100    0.0100    0.0100    0.0100    0.0100    0.0100
0.0100    0.0100    0.0100    0.0100    0.0100    0.0100    0.0100    0.0100
0.0100    0.0100    0.0100    0.0100    0.0100    0.0100    0.0100    0.0100
0.0100    0.0100    0.0100    0.0100    0.0100    0.0100    0.0100    0.0100
0.0100    0.0100    0.0100    0.0100    0.0100    0.0100    0.0100    0.0100
0.0100    0.0100    0.0100    0.0100    0.0100    0.0100    0.0100    0.0100
0.0100    0.0100    0.0100    0.0100    0.0100    0.0100    0.0100    0.0100
0.0100    0.0100    0.0100    0.0100    0.0100    0.0100    0.0100    0.0100
0.0100    0.0100    0.0100    0.0100    0.0100    0.0100    0.0100    0.0100
0.0100    0.0100    0.0100    0.0100    0.0100    0.0100    0.0100    0.0100
0.0100    0.0100    0.0100    0.0100    0.0100    0.0100    0.0100    0.0100
0.0100    0.0100    0.0100    0.0100    0.0100    0.0100    0.0100    0.0100
0.0100    0.0100    0.0100    0.0100    0.0100    0.0100    0.0100    0.0100
0.0100    0.0100    0.0100    0.0100    0.0100    0.0100    0.0100    0.0100
0.0100    0.0100    0.0100    0.0100    0.0100    0.0100    0.0100    0.0100
0.0100    0.0100    0.0100    0.0100    0.0100    0.0100    0.0100    0.0100
0.0100    0.0100    0.0100    0.0100    0.0100    0.0100    0.0100    0.0100
0.0100    0.0100    0.0100    0.0100    0.0100    0.0100    0.0100    0.0100
0.0100    0.0100    0.0100    0.0100    0.0100    0.0100    0.0100    0.0100
0.0100    0.0100    0.0100    0.0100    0.0100    0.0100    0.0100    0.0100
0.0100    0.0100    0.0100    0.0100    0.0100    0.0100    0.0100    0.0100
0.0100    0.0100    0.0100    0.0100    0.0100    0.0100    0.0100    0.0100
0.0100    0.0100    0.0100    0.0100    0.0100    0.0100    0.0100    0.0100
0.0100    0.0100    0.0100    0.0100    0.0100    0.0100    0.0100    0.0100
0.0100    0.0100    0.0100    0.0100    0.0100    0.0100    0.0100    0.0100
0.0100    0.0100    0.0100    0.0100    0.0100    0.0100    0.0100    0.0100
0.0100    0.0100    0.0100    0.0100    0.0100    0.0100    0.0100    0.0100
0.0100    0.0100    0.0100    0.0100    0.0100    0.0100    0.0100    0.0100
0.0100    0.0100    0.0100    0.0100    0.0100    0.0100    0.0100    0.0100
0.0100    0.0100    0.0100    0.0100    0.0100    0.0100    0.0100    0.0100
0.0100    0.0100    0.0100    0.0100    0.0100    0.0100    0.0100    0.0100
0.0100    0.0100    0.0100    0.0100    0.0100    0.0100    0.0100    0.0100
0.0100    0.0100    0.0100    0.0100    0.0100    0.0100    0.0100    0.0100
0.0100    0.0100    0.0100    0.0100    0.0100    0.0100    0.0100    0.0100
0.0100    0.0100    0.0100    0.0100    0.0100    0.0100    0.0100    0.0100
0.0100    0.0100    0.0100    0.0100    0.0100    0.0100    0.0100    0.0100
0.0100    0.0100    0.0100    0.0100    0.0100    0.0100    0.0100    0.0100
0.0100    0.0100    0.0100    0.0100    0.0100    0.0100    0.0100    0.0100
0.0100    0.0100    0.0100    0.0100    0.0100    0.0100    0.0100    0.0100
0.0100    0.0100    0.0100    0.0100    0.0100    0.0100    0.0100    0.0100
0.0100    0.0100    0.0100    0.0100    0.0100    0.0100    0.0100    0.0100
0.0100    0.0100    0.0100    0.0100    0.0100    0.0100    0.0100    0.0100
0.0100    0.0100    0.0100    0.0100    0.0100    0.0100    0.0100    0.0100
0.0100    0.0100    0.0100    0.0100    0.0100    0.0100    0.0100    0.0100
0.0100    0.0100    0.0100    0.0100    0.0100    0.0100    0.0100    0.0100
0.0100    0.0100    0.0100    0.0100    0.0100    0.0100    0.0100    0.0100
0.0100    0.0100    0.0100    0.0100    0.0100    0.0100    0.0100    0.0100
</PP_RAB>
</PP_MESH>
<PP_LOCAL type="real"  size="600" columns="4">
-3.8959017108E+01   -3.8958161338E+01   -3.8955594100E+01   -3.8951315622E+01
-3.8945326203E+01   -3.8937626083E+01   -3.8928215291E+01   -3.8917093438E+01
-3.8904259494E+01   -3.8889711542E+01   -3.8873446524E+01   -3.8855459976E+01
-3.8835745789E+01   -3.8814295968E+01   -3.8791100431E+01   -3.8766146827E+01
-3.8739420402E+01   -3.8710903897E+01   -3.8680577501E+01   -3.8648418835E+01
-3.8614402998E+01   -3.8578502650E+01   -3.8540688135E+01   -3.8500927647E+01
-3.8459187430E+01   -3.8415432004E+01   -3.8369624415E+01   -3.8321726500E+01
-3.8271699163E+01   -3.8219502650E+01   -3.8165096824E+01   -3.8108441427E+01
-3.8049496331E+01   -3.7988221764E+01   -3.7924578528E+01   -3.7858528176E+01
-3.7790033181E+01   -3.7719057080E+01   -3.7645564586E+01   -3.7569521700E+01
-3.7490895795E+01   -3.7409655694E+01   -3.7325771740E+01   -3.7239215863E+01
-3.7149961650E+01   -3.7057984412E+01   -3.6963261263E+01   -3.6865771208E+01
-3.6765495241E+01   -3.6662416458E+01   -3.6556520183E+01   -3.6447794118E+01
-3.6336228497E+01   -3.6221816272E+01   -3.6104553306E+01   -3.5984438585E+01
-3.5861474447E+01   -3.5735666811E+01   -3.5607025429E+01   -3.5475564117E+01
-3.5341300999E+01   -3.5204258730E+01   -3.5064464698E+01   -3.4921951199E+01
-3.4776755581E+01   -3.4628920339E+01   -3.4478493162E+01   -3.4325526935E+01
-3.4170079676E+01   -3.4012214416E+01   -3.3851999033E+01   -3.3689506018E+01
-3.3524812202E+01   -3.3357998433E+01   -3.3189149224E+01   -3.3018352362E+01
-3.2845698511E+01   -3.2671280787E+01   -3.2495194346E+01   -3.2317535962E+01
-3.2138403624E+01   -3.1957896148E+01   -3.1776112800E+01   -3.1593152957E+01
-3.1409115775E+01   -3.1224099897E+01   -3.1038203178E+01   -3.0851522432E+01
-3.0664153210E+01   -3.0476189588E+01   -3.0287723979E+01   -3.0098846960E+01
-2.9909647108E+01   -2.9720210851E+01   -2.9530622330E+01   -2.9340963259E+01
-2.9151312806E+01   -2.8961747465E+01   -2.8772340940E+01   -2.8583164041E+01
-2.8394284571E+01   -2.8205767233E+01   -2.8017673540E+01   -2.7830061737E+01
-2.7642986735E+01   -2.7456500060E+01   -2.7270649824E+01   -2.7085480715E+01
-2.6901034011E+01   -2.6717347625E+01   -2.6534456181E+01   -2.6352391124E+01
-2.6171180865E+01   -2.5990850969E+01   -2.5811424381E+01   -2.5632921684E+01
-2.5455361403E+01   -2.5278760341E+01   -2.5103133940E+01   -2.4928496667E+01
-2.4754862416E+01   -2.4582244918E+01   -2.4410658138E+01   -2.4240116665E+01
-2.4070636068E+01   -2.3902233214E+01   -2.3734926532E+01   -2.3568736216E+01
-2.3403684351E+01   -2.3239794955E+01   -2.3077093941E+01   -2.2915608970E+01
-2.2755369221E+01   -2.2596405056E+01   -2.2438747601E+01   -2.2282428227E+01
-2.2127477973E+01   -2.1973926892E+01   -2.1821803359E+01   -2.1671133355E+01
-2.1521939755E+01   -2.1374241638E+01   -2.1228053672E+01   -2.1083385584E+01
-2.0940241766E+01   -2.0798621033E+01   -2.0658516582E+01   -2.0519916136E+01
-2.0382802332E+01   -2.0247153297E+01   -2.0112943446E+01   -1.9980144435E+01
-1.9848726241E+01   -1.9718658319E+01   -1.9589910764E+01   -1.9462455400E+01
-1.9336266770E+01   -1.9211322905E+01   -1.9087605904E+01   -1.8965102217E+01
-1.8843802761E+01   -1.8723702336E+01   -1.8604799397E+01   -1.8487096373E+01
-1.8370599523E+01   -1.8255318890E+01   -1.8141267584E+01   -1.8028460396E+01
-1.7916912843E+01   -1.7806640286E+01   -1.7697657110E+01   -1.7589976055E+01
-1.7483607672E+01   -1.7378559944E+01   -1.7274838050E+01   -1.7172444017E+01
-1.7071376812E+01   -1.6971632708E+01   -1.6873205043E+01   -1.6776084788E+01
-1.6680260385E+01   -1.6585712679E+01   -1.6492412520E+01   -1.6400323990E+01
-1.6309396202E+01   -1.6219580413E+01   -1.6130855386E+01   -1.6043210978E+01
-1.5956631273E+01   -1.5871095420E+01   -1.5786582435E+01   -1.5703071200E+01
-1.5620540135E+01   -1.5538969172E+01   -1.5458338504E+01   -1.5378627996E+01
-1.5299817703E+01   -1.5221888071E+01   -1.5144819985E+01   -1.5068594725E+01
-1.4993193996E+01   -1.4918599981E+01   -1.4844795365E+01   -1.4771763358E+01
-1.4699487690E+01   -1.4627952615E+01   -1.4557142995E+01   -1.4487044253E+01
-1.4417642330E+01   -1.4348923906E+01   -1.4280876160E+01   -1.4213486224E+01
-1.4146740616E+01   -1.4080625727E+01   -1.4015127112E+01   -1.3950230033E+01
-1.3885920437E+01   -1.3822187725E+01   -1.3759022512E+01   -1.3696416563E+01
-1.3634362261E+01   -1.3572852611E+01   -1.3511879625E+01   -1.3451435228E+01
-1.3391511583E+01   -1.3332102277E+01   -1.3273201127E+01   -1.3214802117E+01
-1.3156899243E+01   -1.3099486750E+01   -1.3042559162E+01   -1.2986111200E+01
-1.2930137753E+01   -1.2874633840E+01   -1.2819594617E+01   -1.2765015351E+01
-1.2710891408E+01   -1.2657218236E+01   -1.2603991350E+01   -1.2551206320E+01
-1.2498858760E+01   -1.2446944318E+01   -1.2395458662E+01   -1.2344397479E+01
-1.2293756461E+01   -1.2243531303E+01   -1.2193717697E+01   -1.2144311327E+01
-1.2095307868E+01   -1.2046702982E+01   -1.1998492318E+01   -1.1950671512E+01
-1.1903236188E+01   -1.1856181958E+01   -1.1809504425E+01   -1.1763199185E+01
-1.1717261832E+01   -1.1671687960E+01   -1.1626473169E+01   -1.1581613065E+01
-1.1537103271E+01   -1.1492939429E+01   -1.1449117204E+01   -1.1405632290E+01
-1.1362480417E+01   -1.1319657355E+01   -1.1277158916E+01   -1.1234980965E+01
-1.1193119420E+01   -1.1151570255E+01   -1.1110329512E+01   -1.1069393296E+01
-1.1028757782E+01   -1.0988419220E+01   -1.0948373935E+01   -1.0908618330E+01
-1.0869148886E+01   -1.0829962167E+01   -1.0791054819E+01   -1.0752423569E+01
-1.0714065229E+01   -1.0675976691E+01   -1.0638154929E+01   -1.0600596997E+01
-1.0563300029E+01   -1.0526261234E+01   -1.0489477898E+01   -1.0452947376E+01
-1.0416667096E+01   -1.0380634550E+01   -1.0344847295E+01   -1.0309302946E+01
-1.0273999177E+01   -1.0238933714E+01   -1.0204104332E+01   -1.0169508852E+01
-1.0135145139E+01   -1.0101011092E+01   -1.0067104651E+01   -1.0033423782E+01
-9.9999664827E+00   -9.9667307749E+00   -9.9337147022E+00   -9.9009163272E+00
-9.8683337296E+00   -9.8359650031E+00   -9.8038082531E+00   -9.7718615954E+00
-9.7401231543E+00   -9.7085910609E+00   -9.6772634524E+00   -9.6461384710E+00
-9.6152142632E+00   -9.5844889797E+00   -9.5539607748E+00   -9.5236278071E+00
-9.4934882394E+00   -9.4635402390E+00   -9.4337819790E+00   -9.4042116384E+00
-9.3748274039E+00   -9.3456274702E+00   -9.3166100419E+00   -9.2877733341E+00
-9.2591155743E+00   -9.2306350037E+00   -9.2023298783E+00   -9.1741984703E+00
-9.1462390699E+00   -9.1184499861E+00   -9.0908295484E+00   -9.0633761074E+00
-9.0360880367E+00   -9.0089637331E+00   -8.9820016182E+00   -8.9552001366E+00
-8.9285577623E+00   -8.9020729954E+00   -8.8757443614E+00   -8.8495704458E+00
-8.8235497950E+00   -8.7976809734E+00   -8.7719626045E+00   -8.7463931729E+00
-8.7209715363E+00   -8.6956967126E+00   -8.6705675496E+00   -8.6455832234E+00
-8.6207422032E+00   -8.5960421557E+00   -8.5714812455E+00   -8.5470574030E+00
-8.5227690308E+00   -8.4986166047E+00   -8.4745999707E+00   -8.4507191561E+00
-8.4269746501E+00   -8.4033648095E+00   -8.3798885749E+00   -8.3565446948E+00
-8.3333316617E+00   -8.3102481469E+00   -8.2872927305E+00   -8.2644639907E+00
-8.2417603969E+00   -8.2191807843E+00   -8.1967242738E+00   -8.1743899280E+00
-8.1521769057E+00   -8.1300844674E+00   -8.1081114757E+00   -8.0862569648E+00
-8.0645199660E+00   -8.0428994718E+00   -8.0213945692E+00   -8.0000043464E+00
-7.9787278893E+00   -7.9575642947E+00   -7.9365126691E+00   -7.9155721249E+00
-7.8947417855E+00   -7.8740207835E+00   -7.8534082607E+00   -7.8329033677E+00
-7.8125052640E+00   -7.7922131178E+00   -7.7720261059E+00   -7.7519434136E+00
-7.7319642347E+00   -7.7120877711E+00   -7.6923132329E+00   -7.6726398385E+00
-7.6530668139E+00   -7.6335933932E+00   -7.6142188182E+00   -7.5949423384E+00
-7.5757632110E+00   -7.5566807003E+00   -7.5376940783E+00   -7.5188026243E+00
-7.5000056246E+00   -7.4813023728E+00   -7.4626921694E+00   -7.4441743218E+00
-7.4257481445E+00   -7.4074129584E+00   -7.3891680914E+00   -7.3710128779E+00
-7.3529466587E+00   -7.3349687812E+00   -7.3170785991E+00   -7.2992754723E+00
-7.2815587671E+00   -7.2639278558E+00   -7.2463821167E+00   -7.2289209344E+00
-7.2115436989E+00   -7.1942498066E+00   -7.1770386592E+00   -7.1599096645E+00
-7.1428622356E+00   -7.1258957914E+00   -7.1090097563E+00   -7.0922035599E+00
-7.0754766376E+00   -7.0588284296E+00   -7.0422583818E+00   -7.0257659450E+00
-7.0093505754E+00   -6.9930117339E+00   -6.9767488868E+00   -6.9605615050E+00
-6.9444490646E+00   -6.9284110463E+00   -6.9124469358E+00   -6.8965562233E+00
-6.8807384039E+00   -6.8649929772E+00   -6.8493194473E+00   -6.8337173229E+00
-6.8181861173E+00   -6.8027253480E+00   -6.7873345369E+00   -6.7720132103E+00
-6.7567608987E+00   -6.7415771369E+00   -6.7264614638E+00   -6.7114134223E+00
-6.6964325598E+00   -6.6815184272E+00   -6.6666705798E+00   -6.6518885766E+00
-6.6371719806E+00   -6.6225203587E+00   -6.6079332815E+00   -6.5934103235E+00
-6.5789510628E+00   -6.5645550813E+00   -6.5502219646E+00   -6.5359513017E+00
-6.5217426853E+00   -6.5075957117E+00   -6.4935099806E+00   -6.4794850951E+00
-6.4655206620E+00   -6.4516162911E+00   -6.4377715959E+00   -6.4239861928E+00
-6.4102597020E+00   -6.3965917465E+00   -6.3829819528E+00   -6.3694299503E+00
-6.3559353717E+00   -6.3424978529E+00   -6.3291170327E+00   -6.3157925530E+00
-6.3025240587E+00   -6.2893111978E+00   -6.2761536210E+00   -6.2630509820E+00
-6.2500029377E+00   -6.2370091473E+00   -6.2240692733E+00   -6.2111829808E+00
-6.1983499377E+00   -6.1855698145E+00   -6.1728422846E+00   -6.1601670241E+00
-6.1475437115E+00   -6.1349720283E+00   -6.1224516583E+00   -6.1099822879E+00
-6.0975636062E+00   -6.0851953048E+00   -6.0728770777E+00   -6.0606086214E+00
-6.0483896349E+00   -6.0362198196E+00   -6.0240988792E+00   -6.0120265199E+00
-6.0000024503E+00   -5.9880263811E+00   -5.9760980256E+00   -5.9642170991E+00
-5.9523833193E+00   -5.9405964062E+00   -5.9288560819E+00   -5.9171620706E+00
-5.9055140990E+00   -5.8939118956E+00   -5.8823551912E+00   -5.8708437188E+00
-5.8593772132E+00   -5.8479554115E+00   -5.8365780527E+00   -5.8252448781E+00
-5.8139556307E+00   -5.8027100556E+00   -5.7915078999E+00   -5.7803489126E+00
-5.7692328446E+00   -5.7581594488E+00   -5.7471284800E+00   -5.7361396948E+00
-5.7251928517E+00   -5.7142877111E+00   -5.7034240349E+00   -5.6926015874E+00
-5.6818201340E+00   -5.6710794425E+00   -5.6603792821E+00   -5.6497194237E+00
-5.6390996401E+00   -5.6285197058E+00   -5.6179793968E+00   -5.6074784910E+00
-5.5970167679E+00   -5.5865940084E+00   -5.5762099954E+00   -5.5658645133E+00
-5.5555573478E+00   -5.5452882866E+00   -5.5350571188E+00   -5.5248636349E+00
-5.5147076273E+00   -5.5045888895E+00   -5.4945072168E+00   -5.4844624059E+00
-5.4744542550E+00   -5.4644825639E+00   -5.4545471335E+00   -5.4446477665E+00
-5.4347842670E+00   -5.4249564402E+00   -5.4151640931E+00   -5.4054070338E+00
-5.3956850719E+00   -5.3859980185E+00   -5.3763456858E+00   -5.3667278875E+00
-5.3571444386E+00   -5.3475951554E+00   -5.3380798555E+00   -5.3285983578E+00
-5.3191504826E+00   -5.3097360513E+00   -5.3003548866E+00   -5.2910068125E+00
-5.2816916543E+00   -5.2724092384E+00   -5.2631593924E+00   -5.2539419453E+00
-5.2447567272E+00   -5.2356035692E+00   -5.2264823038E+00   -5.2173927647E+00
-5.2083347865E+00   -5.1993082053E+00   -5.1903128579E+00   -5.1813485827E+00
-5.1724152188E+00   -5.1635126067E+00   -5.1546405878E+00   -5.1457990047E+00
-5.1369877011E+00   -5.1282065217E+00   -5.1194553123E+00   -5.1107339196E+00
-5.1020421917E+00   -5.0933799773E+00   -5.0847471264E+00   -5.0761434899E+00
-5.0675689199E+00   -5.0590232692E+00   -5.0505063918E+00   -5.0420181426E+00
-5.0335583775E+00   -5.0251269534E+00   -5.0167237281E+00   -5.0083485604E+00
</PP_LOCAL>
<PP_NONLOCAL>
<PP_BETA.1
type="real"
size="600"
columns="4"
index="1"
angular_momentum="0"
cutoff_radius_index=" 216"
cutoff_radius="    2.1500000000E+00" >
-1.2166512242E-10    5.1124500593E-02    1.0202953970E-01    1.5249688368E-01
2.0231074807E-01    2.5125900590E-01    2.9913437654E-01    3.4573558887E-01
3.9086851230E-01    4.3434724989E-01    4.7599518742E-01    5.1564599291E-01
5.5314456103E-01    5.8834789736E-01    6.2112593744E-01    6.5136229622E-01
6.7895494353E-01    7.0381680177E-01    7.2587626237E-01    7.4507761776E-01
7.6138140642E-01    7.7476466853E-01    7.8522111064E-01    7.9276117783E-01
7.9741203274E-01    7.9921744088E-01    7.9823756244E-01    7.9454865125E-01
7.8824266183E-01    7.7942676637E-01    7.6822278344E-01    7.5476652123E-01
7.3920703826E-01    7.2170582509E-01    7.0243591097E-01    6.8158089993E-01
6.5933394102E-01    6.3589663803E-01    6.1147790420E-01    5.8629276801E-01
5.6056113621E-01    5.3450652073E-01    5.0835473639E-01    4.8233257629E-01
4.5666647242E-01    4.3158114874E-01    4.0729827432E-01    3.8403512420E-01
3.6200325573E-01    3.4140720780E-01    3.2244323097E-01    3.0529805563E-01
2.9014770590E-01    2.7715636635E-01    2.6647530856E-01    2.5824188427E-01
2.5257859156E-01    2.4959222015E-01    2.4937308142E-01    2.5199432859E-01
2.5751137175E-01    2.6596139198E-01    2.7736295855E-01    2.9171575221E-01
3.0900039732E-01    3.2917840472E-01    3.5219222697E-01    3.7796542633E-01
4.0640295597E-01    4.3739155346E-01    4.7080024556E-01    5.0648096212E-01
5.4426925669E-01    5.8398513040E-01    6.2543395522E-01    6.6840749206E-01
7.1268499839E-01    7.5803441972E-01    8.0421365844E-01    8.5097191319E-01
8.9805108131E-01    9.4518721654E-01    9.9211203362E-01    1.0385544511E+00
1.0842421637E+00    1.1289032341E+00    1.1722676961E+00    1.2140691580E+00
1.2540463974E+00    1.2919449377E+00    1.3275185957E+00    1.3605309919E+00
1.3907570126E+00    1.4179842158E+00    1.4420141706E+00    1.4626637226E+00
1.4797661761E+00    1.4931723858E+00    1.5027517495E+00    1.5083930973E+00
1.5100054681E+00    1.5075187703E+00    1.5008843204E+00    1.4900752561E+00
1.4750868199E+00    1.4559365110E+00    1.4326641039E+00    1.4053315320E+00
1.3740226369E+00    1.3388427840E+00    1.2999183452E+00    1.2573960525E+00
1.2114422247E+00    1.1622418719E+00    1.1099976829E+00    1.0549289001E+00
9.9727009058E-01    9.3726981781E-01    8.7518922440E-01    8.1130053279E-01
7.4588547348E-01    6.7923365043E-01    6.1164085376E-01    5.4340732986E-01
4.7483602007E-01    4.0623077879E-01    3.3789458223E-01    2.7012773922E-01
2.0322611548E-01    1.3747938262E-01    7.3169303150E-02    1.0568062668E-02
-5.0063340220E-02   -1.0847663539E-01   -1.6443774456E-01   -2.1772815636E-01
-2.6814620427E-01   -3.1550823947E-01   -3.5964968959E-01   -4.0042599751E-01
-4.3771343334E-01   -4.7140977343E-01   -5.0143484341E-01   -5.2773091915E-01
-5.5026298480E-01   -5.6901884484E-01   -5.8400908864E-01   -5.9526690956E-01
-6.0284777592E-01   -6.0682895966E-01   -6.0730892185E-01   -6.0440656103E-01
-5.9826032805E-01   -5.8902721218E-01   -5.7688160658E-01   -5.6201405715E-01
-5.4462990617E-01   -5.2494783524E-01   -5.0319831951E-01   -4.7962200333E-01
-4.5446801455E-01   -4.2799216376E-01   -4.0045517878E-01   -3.7212098848E-01
-3.4325499198E-01   -3.1412239153E-01   -2.8498644742E-01   -2.5610668271E-01
-2.2773715332E-01   -2.0012475127E-01   -1.7350755164E-01   -1.4811321893E-01
-1.2415748175E-01   -1.0184268417E-01   -8.1356425417E-02   -6.2870293986E-02
-4.6546334114E-02   -3.2510038375E-02   -2.0830553170E-02   -1.1653062428E-02
-5.2474929662E-03   -1.5820849493E-03   -5.5375008565E-06    2.8328728725E-04
4.1657665666E-05   -9.1701243450E-05   -4.0119905897E-05    1.4038650720E-05
1.1818354520E-05    6.2471752730E-08    9.3835532950E-08    0.0000000000E+00
0.0000000000E+00    0.0000000000E+00    0.0000000000E+00    0.0000000000E+00
0.0000000000E+00    0.0000000000E+00    0.0000000000E+00    0.0000000000E+00
0.0000000000E+00    0.0000000000E+00    0.0000000000E+00    0.0000000000E+00
0.0000000000E+00    0.0000000000E+00    0.0000000000E+00    0.0000000000E+00
0.0000000000E+00    0.0000000000E+00    0.0000000000E+00    0.0000000000E+00