<UPF version="2.0.1">
<PP_INFO>
NOTE!!!!
This file is trimmed with a mesh size of 600 from the original version.
Trimming performed at 2023-03-31 09:10:05.074029 by trim_upf.py version 0.1.0

This pseudopotential file has been produced using the code
ONCVPSP  (Optimized Norm-Conservinng Vanderbilt PSeudopotential)
scalar-relativistic version 3.3.0 08/16/2017 by D. R. Hamann
The code is available through a link at URL www.mat-simresearch.com.
Documentation with the package provides a full discription of the
input data below.
While it is not required under the terms of the GNU GPL, it is
suggested that you cite D. R. Hamann, Phys. Rev. B 88, 085117 (2013)
in any publication using these pseudopotentials.
<PP_INPUTFILE>
# ATOM AND REFERENCE CONFIGURATION
# atsym  z   nc   nv     iexc    psfile
Sc 21.00    3    4       4      upf
#
#   n    l    f        energy (Ha)
1    0    2.00
2    0    2.00
2    1    6.00
3    0    2.00
3    1    6.00
3    2    1.00
4    0    2.00
#
# PSEUDOPOTENTIAL AND OPTIMIZATION
# lmax
2
#
#   l,   rc,      ep,       ncon, nbas, qcut
0   1.35000  -2.02265    4    9   8.60000
1   1.35000  -1.23568    4    8   9.00000
2   1.65000  -0.11882    4    8   8.80000
#
# LOCAL POTENTIAL
# lloc, lpopt,  rc(5),   dvloc0
4    5   1.30000      0.00000
#
# VANDERBILT-KLEINMAN-BYLANDER PROJECTORs
# l, nproj, debl
0    2   1.86892
1    2   2.00000
2    2   2.00000
#
# MODEL CORE CHARGE
# icmod, fcfact, rcfact
3   5.00000   1.25000
#
# LOG DERIVATIVE ANALYSIS
# epsh1, epsh2, depsh
-12.00   12.00    0.02
#
# OUTPUT GRID
# rlmax, drl
6.00    0.01
#
# TEST CONFIGURATIONS
# ncnf
0
# nvcnf
#   n    l    f
</PP_INPUTFILE>
</PP_INFO>
<!--                               -->
<!-- END OF HUMAN READABLE SECTION -->
<!--                               -->
<PP_HEADER
generated="Generated using ONCVPSP code by D. R. Hamann"
author="anonymous"
date="171031"
comment=""
element="Sc"
pseudo_type="NC"
relativistic="scalar"
is_ultrasoft="F"
is_paw="F"
is_coulomb="F"
has_so="F"
has_wfc="F"
has_gipaw="F"
core_correction="T"
functional="PBE"
z_valence="   11.00"
total_psenergy="  -9.32145531703E+01"
rho_cutoff="   1.66100000000E+01"
l_max="2"
l_local="-1"
mesh_size="   600"
number_of_wfc="4"
number_of_proj="6"/>
<PP_MESH>
<PP_R type="real"  size="600" columns="8">
0.0000    0.0100    0.0200    0.0300    0.0400    0.0500    0.0600    0.0700
0.0800    0.0900    0.1000    0.1100    0.1200    0.1300    0.1400    0.1500
0.1600    0.1700    0.1800    0.1900    0.2000    0.2100    0.2200    0.2300
0.2400    0.2500    0.2600    0.2700    0.2800    0.2900    0.3000    0.3100
0.3200    0.3300    0.3400    0.3500    0.3600    0.3700    0.3800    0.3900
0.4000    0.4100    0.4200    0.4300    0.4400    0.4500    0.4600    0.4700
0.4800    0.4900    0.5000    0.5100    0.5200    0.5300    0.5400    0.5500
0.5600    0.5700    0.5800    0.5900    0.6000    0.6100    0.6200    0.6300
0.6400    0.6500    0.6600    0.6700    0.6800    0.6900    0.7000    0.7100
0.7200    0.7300    0.7400    0.7500    0.7600    0.7700    0.7800    0.7900
0.8000    0.8100    0.8200    0.8300    0.8400    0.8500    0.8600    0.8700
0.8800    0.8900    0.9000    0.9100    0.9200    0.9300    0.9400    0.9500
0.9600    0.9700    0.9800    0.9900    1.0000    1.0100    1.0200    1.0300
1.0400    1.0500    1.0600    1.0700    1.0800    1.0900    1.1000    1.1100
1.1200    1.1300    1.1400    1.1500    1.1600    1.1700    1.1800    1.1900
1.2000    1.2100    1.2200    1.2300    1.2400    1.2500    1.2600    1.2700
1.2800    1.2900    1.3000    1.3100    1.3200    1.3300    1.3400    1.3500
1.3600    1.3700    1.3800    1.3900    1.4000    1.4100    1.4200    1.4300
1.4400    1.4500    1.4600    1.4700    1.4800    1.4900    1.5000    1.5100
1.5200    1.5300    1.5400    1.5500    1.5600    1.5700    1.5800    1.5900
1.6000    1.6100    1.6200    1.6300    1.6400    1.6500    1.6600    1.6700
1.6800    1.6900    1.7000    1.7100    1.7200    1.7300    1.7400    1.7500
1.7600    1.7700    1.7800    1.7900    1.8000    1.8100    1.8200    1.8300
1.8400    1.8500    1.8600    1.8700    1.8800    1.8900    1.9000    1.9100
1.9200    1.9300    1.9400    1.9500    1.9600    1.9700    1.9800    1.9900
2.0000    2.0100    2.0200    2.0300    2.0400    2.0500    2.0600    2.0700
2.0800    2.0900    2.1000    2.1100    2.1200    2.1300    2.1400    2.1500
2.1600    2.1700    2.1800    2.1900    2.2000    2.2100    2.2200    2.2300
2.2400    2.2500    2.2600    2.2700    2.2800    2.2900    2.3000    2.3100
2.3200    2.3300    2.3400    2.3500    2.3600    2.3700    2.3800    2.3900
2.4000    2.4100    2.4200    2.4300    2.4400    2.4500    2.4600    2.4700
2.4800    2.4900    2.5000    2.5100    2.5200    2.5300    2.5400    2.5500
2.5600    2.5700    2.5800    2.5900    2.6000    2.6100    2.6200    2.6300
2.6400    2.6500    2.6600    2.6700    2.6800    2.6900    2.7000    2.7100
2.7200    2.7300    2.7400    2.7500    2.7600    2.7700    2.7800    2.7900
2.8000    2.8100    2.8200    2.8300    2.8400    2.8500    2.8600    2.8700
2.8800    2.8900    2.9000    2.9100    2.9200    2.9300    2.9400    2.9500
2.9600    2.9700    2.9800    2.9900    3.0000    3.0100    3.0200    3.0300
3.0400    3.0500    3.0600    3.0700    3.0800    3.0900    3.1000    3.1100
3.1200    3.1300    3.1400    3.1500    3.1600    3.1700    3.1800    3.1900
3.2000    3.2100    3.2200    3.2300    3.2400    3.2500    3.2600    3.2700
3.2800    3.2900    3.3000    3.3100    3.3200    3.3300    3.3400    3.3500
3.3600    3.3700    3.3800    3.3900    3.4000    3.4100    3.4200    3.4300
3.4400    3.4500    3.4600    3.4700    3.4800    3.4900    3.5000    3.5100
3.5200    3.5300    3.5400    3.5500    3.5600    3.5700    3.5800    3.5900
3.6000    3.6100    3.6200    3.6300    3.6400    3.6500    3.6600    3.6700
3.6800    3.6900    3.7000    3.7100    3.7200    3.7300    3.7400    3.7500
3.7600    3.7700    3.7800    3.7900    3.8000    3.8100    3.8200    3.8300
3.8400    3.8500    3.8600    3.8700    3.8800    3.8900    3.9000    3.9100
3.9200    3.9300    3.9400    3.9500    3.9600    3.9700    3.9800    3.9900
4.0000    4.0100    4.0200    4.0300    4.0400    4.0500    4.0600    4.0700
4.0800    4.0900    4.1000    4.1100    4.1200    4.1300    4.1400    4.1500
4.1600    4.1700    4.1800    4.1900    4.2000    4.2100    4.2200    4.2300
4.2400    4.2500    4.2600    4.2700    4.2800    4.2900    4.3000    4.3100
4.3200    4.3300    4.3400    4.3500    4.3600    4.3700    4.3800    4.3900
4.4000    4.4100    4.4200    4.4300    4.4400    4.4500    4.4600    4.4700
4.4800    4.4900    4.5000    4.5100    4.5200    4.5300    4.5400    4.5500
4.5600    4.5700    4.5800    4.5900    4.6000    4.6100    4.6200    4.6300
4.6400    4.6500    4.6600    4.6700    4.6800    4.6900    4.7000    4.7100
4.7200    4.7300    4.7400    4.7500    4.7600    4.7700    4.7800    4.7900
4.8000    4.8100    4.8200    4.8300    4.8400    4.8500    4.8600    4.8700
4.8800    4.8900    4.9000    4.9100    4.9200    4.9300    4.9400    4.9500
4.9600    4.9700    4.9800    4.9900    5.0000    5.0100    5.0200    5.0300
5.0400    5.0500    5.0600    5.0700    5.0800    5.0900    5.1000    5.1100
5.1200    5.1300    5.1400    5.1500    5.1600    5.1700    5.1800    5.1900
5.2000    5.2100    5.2200    5.2300    5.2400    5.2500    5.2600    5.2700
5.2800    5.2900    5.3000    5.3100    5.3200    5.3300    5.3400    5.3500
5.3600    5.3700    5.3800    5.3900    5.4000    5.4100    5.4200    5.4300
5.4400    5.4500    5.4600    5.4700    5.4800    5.4900    5.5000    5.5100
5.5200    5.5300    5.5400    5.5500    5.5600    5.5700    5.5800    5.5900
5.6000    5.6100    5.6200    5.6300    5.6400    5.6500    5.6600    5.6700
5.6800    5.6900    5.7000    5.7100    5.7200    5.7300    5.7400    5.7500
5.7600    5.7700    5.7800    5.7900    5.8000    5.8100    5.8200    5.8300
5.8400    5.8500    5.8600    5.8700    5.8800    5.8900    5.9000    5.9100
5.9200    5.9300    5.9400    5.9500    5.9600    5.9700    5.9800    5.9900
</PP_R>
<PP_RAB type="real"  size="600" columns="8">
0.0100    0.0100    0.0100    0.0100    0.0100    0.0100    0.0100    0.0100
0.0100    0.0100    0.0100    0.0100    0.0100    0.0100    0.0100    0.0100
0.0100    0.0100    0.0100    0.0100    0.0100    0.0100    0.0100    0.0100
0.0100    0.0100    0.0100    0.0100    0.0100    0.0100    0.0100    0.0100
0.0100    0.0100    0.0100    0.0100    0.0100    0.0100    0.0100    0.0100
0.0100    0.0100    0.0100    0.0100    0.0100    0.0100    0.0100    0.0100
0.0100    0.0100    0.0100    0.0100    0.0100    0.0100    0.0100    0.0100
0.0100    0.0100    0.0100    0.0100    0.0100    0.0100    0.0100    0.0100
0.0100    0.0100    0.0100    0.0100    0.0100    0.0100    0.0100    0.0100
0.0100    0.0100    0.0100    0.0100    0.0100    0.0100    0.0100    0.0100
0.0100    0.0100    0.0100    0.0100    0.0100    0.0100    0.0100    0.0100
0.0100    0.0100    0.0100    0.0100    0.0100    0.0100    0.0100    0.0100
0.0100    0.0100    0.0100    0.0100    0.0100    0.0100    0.0100    0.0100
0.0100    0.0100    0.0100    0.0100    0.0100    0.0100    0.0100    0.0100
0.0100    0.0100    0.0100    0.0100    0.0100    0.0100    0.0100    0.0100
0.0100    0.0100    0.0100    0.0100    0.0100    0.0100    0.0100    0.0100
0.0100    0.0100    0.0100    0.0100    0.0100    0.0100    0.0100    0.0100
0.0100    0.0100    0.0100    0.0100    0.0100    0.0100    0.0100    0.0100
0.0100    0.0100    0.0100    0.0100    0.0100    0.0100    0.0100    0.0100
0.0100    0.0100    0.0100    0.0100    0.0100    0.0100    0.0100    0.0100
0.0100    0.0100    0.0100    0.0100    0.0100    0.0100    0.0100    0.0100
0.0100    0.0100    0.0100    0.0100    0.0100    0.0100    0.0100    0.0100
0.0100    0.0100    0.0100    0.0100    0.0100    0.0100    0.0100    0.0100
0.0100    0.0100    0.0100    0.0100    0.0100    0.0100    0.0100    0.0100
0.0100    0.0100    0.0100    0.0100    0.0100    0.0100    0.0100    0.0100
0.0100    0.0100    0.0100    0.0100    0.0100    0.0100    0.0100    0.0100
0.0100    0.0100    0.0100    0.0100    0.0100    0.0100    0.0100    0.0100
0.0100    0.0100    0.0100    0.0100    0.0100    0.0100    0.0100    0.0100
0.0100    0.0100    0.0100    0.0100    0.0100    0.0100    0.0100    0.0100
0.0100    0.0100    0.0100    0.0100    0.0100    0.0100    0.0100    0.0100
0.0100    0.0100    0.0100    0.0100    0.0100    0.0100    0.0100    0.0100
0.0100    0.0100    0.0100    0.0100    0.0100    0.0100    0.0100    0.0100
0.0100    0.0100    0.0100    0.0100    0.0100    0.0100    0.0100    0.0100
0.0100    0.0100    0.0100    0.0100    0.0100    0.0100    0.0100    0.0100
0.0100    0.0100    0.0100    0.0100    0.0100    0.0100    0.0100    0.0100
0.0100    0.0100    0.0100    0.0100    0.0100    0.0100    0.0100    0.0100
0.0100    0.0100    0.0100    0.0100    0.0100    0.0100    0.0100    0.0100
0.0100    0.0100    0.0100    0.0100    0.0100    0.0100    0.0100    0.0100
0.0100    0.0100    0.0100    0.0100    0.0100    0.0100    0.0100    0.0100
0.0100    0.0100    0.0100    0.0100    0.0100    0.0100    0.0100    0.0100
0.0100    0.0100    0.0100    0.0100    0.0100    0.0100    0.0100    0.0100
0.0100    0.0100    0.0100    0.0100    0.0100    0.0100    0.0100    0.0100
0.0100    0.0100    0.0100    0.0100    0.0100    0.0100    0.0100    0.0100
0.0100    0.0100    0.0100    0.0100    0.0100    0.0100    0.0100    0.0100
0.0100    0.0100    0.0100    0.0100    0.0100    0.0100    0.0100    0.0100
0.0100    0.0100    0.0100    0.0100    0.0100    0.0100    0.0100    0.0100
0.0100    0.0100    0.0100    0.0100    0.0100    0.0100    0.0100    0.0100
0.0100    0.0100    0.0100    0.0100    0.0100    0.0100    0.0100    0.0100
0.0100    0.0100    0.0100    0.0100    0.0100    0.0100    0.0100    0.0100
0.0100    0.0100    0.0100    0.0100    0.0100    0.0100    0.0100    0.0100
0.0100    0.0100    0.0100    0.0100    0.0100    0.0100    0.0100    0.0100
0.0100    0.0100    0.0100    0.0100    0.0100    0.0100    0.0100    0.0100
0.0100    0.0100    0.0100    0.0100    0.0100    0.0100    0.0100    0.0100
0.0100    0.0100    0.0100    0.0100    0.0100    0.0100    0.0100    0.0100
0.0100    0.0100    0.0100    0.0100    0.0100    0.0100    0.0100    0.0100
0.0100    0.0100    0.0100    0.0100    0.0100    0.0100    0.0100    0.0100
0.0100    0.0100    0.0100    0.0100    0.0100    0.0100    0.0100    0.0100
0.0100    0.0100    0.0100    0.0100    0.0100    0.0100    0.0100    0.0100
0.0100    0.0100    0.0100    0.0100    0.0100    0.0100    0.0100    0.0100
0.0100    0.0100    0.0100    0.0100    0.0100    0.0100    0.0100    0.0100
0.0100    0.0100    0.0100    0.0100    0.0100    0.0100    0.0100    0.0100
0.0100    0.0100    0.0100    0.0100    0.0100    0.0100    0.0100    0.0100
0.0100    0.0100    0.0100    0.0100    0.0100    0.0100    0.0100    0.0100
0.0100    0.0100    0.0100    0.0100    0.0100    0.0100    0.0100    0.0100
0.0100    0.0100    0.0100    0.0100    0.0100    0.0100    0.0100    0.0100
0.0100    0.0100    0.0100    0.0100    0.0100    0.0100    0.0100    0.0100
0.0100    0.0100    0.0100    0.0100    0.0100    0.0100    0.0100    0.0100
0.0100    0.0100    0.0100    0.0100    0.0100    0.0100    0.0100    0.0100
0.0100    0.0100    0.0100    0.0100    0.0100    0.0100    0.0100    0.0100
0.0100    0.0100    0.0100    0.0100    0.0100    0.0100    0.0100    0.0100
0.0100    0.0100    0.0100    0.0100    0.0100    0.0100    0.0100    0.0100
0.0100    0.0100    0.0100    0.0100    0.0100    0.0100    0.0100    0.0100
0.0100    0.0100    0.0100    0.0100    0.0100    0.0100    0.0100    0.0100
0.0100    0.0100    0.0100    0.0100    0.0100    0.0100    0.0100    0.0100
0.0100    0.0100    0.0100    0.0100    0.0100    0.0100    0.0100    0.0100
</PP_RAB>
</PP_MESH>
<PP_LOCAL type="real"  size="600" columns="4">
-3.4628711425E+01   -3.4627168075E+01   -3.4622540414E+01   -3.4614846337E+01
-3.4604114138E+01   -3.4590381947E+01   -3.4573696663E+01   -3.4554112544E+01
-3.4531689627E+01   -3.4506492036E+01   -3.4478586275E+01   -3.4448039540E+01
-3.4414918146E+01   -3.4379286076E+01   -3.4341203707E+01   -3.4300726737E+01
-3.4257905306E+01   -3.4212783320E+01   -3.4165397972E+01   -3.4115779434E+01
-3.4063950715E+01   -3.4009927636E+01   -3.3953718932E+01   -3.3895326428E+01
-3.3834745290E+01   -3.3771964308E+01   -3.3706966223E+01   -3.3639728064E+01
-3.3570221489E+01   -3.3498413124E+01   -3.3424264906E+01   -3.3347734402E+01
-3.3268775130E+01   -3.3187336862E+01   -3.3103365924E+01   -3.3016805476E+01
-3.2927595798E+01   -3.2835674558E+01   -3.2740977071E+01   -3.2643436559E+01
-3.2542984399E+01   -3.2439550371E+01   -3.2333062911E+01   -3.2223449383E+01
-3.2110636382E+01   -3.1994550111E+01   -3.1875116841E+01   -3.1752263529E+01
-3.1625918613E+01   -3.1496013065E+01   -3.1362481719E+01   -3.1225264945E+01
-3.1084310641E+01   -3.0939576562E+01   -3.0791032893E+01   -3.0638664959E+01
-3.0482475919E+01   -3.0322489220E+01   -3.0158750584E+01   -2.9991329292E+01
-2.9820318560E+01   -2.9645834854E+01   -2.9468016117E+01   -2.9287018957E+01
-2.9103014980E+01   -2.8916186549E+01   -2.8726722304E+01   -2.8534812806E+01
-2.8340646630E+01   -2.8144407161E+01   -2.7946270259E+01   -2.7746402836E+01
-2.7544962310E+01   -2.7342096810E+01   -2.7137945975E+01   -2.6932642154E+01
-2.6726311840E+01   -2.6519077181E+01   -2.6311057445E+01   -2.6102370346E+01
-2.5893133177E+01   -2.5683463704E+01   -2.5473480824E+01   -2.5263304962E+01
-2.5053058236E+01   -2.4842864398E+01   -2.4632848580E+01   -2.4423136872E+01
-2.4213855766E+01   -2.4005131494E+01   -2.3797089311E+01   -2.3589852744E+01
-2.3383542840E+01   -2.3178277456E+01   -2.2974170597E+01   -2.2771331832E+01
-2.2569865790E+01   -2.2369871761E+01   -2.2171443382E+01   -2.1974668416E+01
-2.1779628621E+01   -2.1586399690E+01   -2.1395051261E+01   -2.1205646980E+01
-2.1018244609E+01   -2.0832896165E+01   -2.0649648090E+01   -2.0468541425E+01
-2.0289612008E+01   -2.0112890659E+01   -1.9938403381E+01   -1.9766171540E+01
-1.9596212050E+01   -1.9428537544E+01   -1.9263156539E+01   -1.9100073583E+01
-1.8939289402E+01   -1.8780801029E+01   -1.8624601920E+01   -1.8470682066E+01
-1.8319028089E+01   -1.8169623323E+01   -1.8022447891E+01   -1.7877478764E+01
-1.7734689810E+01   -1.7594051827E+01   -1.7455532573E+01   -1.7319096764E+01
-1.7184706091E+01   -1.7052319189E+01   -1.6921891689E+01   -1.6793375850E+01
-1.6666721553E+01   -1.6541878664E+01   -1.6418798580E+01   -1.6297439600E+01
-1.6177774064E+01   -1.6059790624E+01   -1.5943489056E+01   -1.5828846149E+01
-1.5715821575E+01   -1.5604377139E+01   -1.5494479128E+01   -1.5386100990E+01
-1.5279213747E+01   -1.5173786905E+01   -1.5069792675E+01   -1.4967204015E+01
-1.4865994292E+01   -1.4766137594E+01   -1.4667608657E+01   -1.4570382802E+01
-1.4474435899E+01   -1.4379744343E+01   -1.4286285029E+01   -1.4194035326E+01
-1.4102973057E+01   -1.4013076482E+01   -1.3924324285E+01   -1.3836695563E+01
-1.3750169793E+01   -1.3664726850E+01   -1.3580347019E+01   -1.3497010931E+01
-1.3414699718E+01   -1.3333394561E+01   -1.3253076061E+01   -1.3173724491E+01
-1.3095319482E+01   -1.3017841185E+01   -1.2941272263E+01   -1.2865596968E+01
-1.2790800267E+01   -1.2716867617E+01   -1.2643784009E+01   -1.2571534375E+01
-1.2500104493E+01   -1.2429480760E+01   -1.2359649742E+01   -1.2290598218E+01
-1.2222313297E+01   -1.2154782406E+01   -1.2087993245E+01   -1.2021933774E+01
-1.1956592209E+01   -1.1891957019E+01   -1.1828016911E+01   -1.1764760825E+01
-1.1702177925E+01   -1.1640257596E+01   -1.1578989437E+01   -1.1518363253E+01
-1.1458369052E+01   -1.1398997039E+01   -1.1340237613E+01   -1.1282081358E+01
-1.1224519043E+01   -1.1167541615E+01   -1.1111140193E+01   -1.1055306070E+01
-1.1000030701E+01   -1.0945305703E+01   -1.0891122854E+01   -1.0837474083E+01
-1.0784351473E+01   -1.0731747255E+01   -1.0679653809E+01   -1.0628063679E+01
-1.0576969464E+01   -1.0526363851E+01   -1.0476240015E+01   -1.0426591402E+01
-1.0377411495E+01   -1.0328691904E+01   -1.0280424570E+01   -1.0232603557E+01
-1.0185224761E+01   -1.0138284451E+01   -1.0091776403E+01   -1.0045694320E+01
-1.0000031815E+01   -9.9547828364E+00   -9.9099413311E+00   -9.8655017574E+00
-9.8214588529E+00   -9.7778075356E+00   -9.7345425412E+00   -9.6916587361E+00
-9.6491510822E+00   -9.6070146651E+00   -9.5652446438E+00   -9.5238362593E+00
-9.4827848342E+00   -9.4420857723E+00   -9.4017345556E+00   -9.3617267436E+00
-9.3220579710E+00   -9.2827239462E+00   -9.2437204500E+00   -9.2050433340E+00
-9.1666885190E+00   -9.1286519934E+00   -9.0909298124E+00   -9.0535180959E+00
-9.0164130276E+00   -8.9796108537E+00   -8.9431078814E+00   -8.9069004776E+00
-8.8709850680E+00   -8.8353581357E+00   -8.8000162201E+00   -8.7649559157E+00
-8.7301738710E+00   -8.6956667874E+00   -8.6614314184E+00   -8.6274645683E+00
-8.5937630911E+00   -8.5603238899E+00   -8.5271439157E+00   -8.4942201665E+00
-8.4615496864E+00   -8.4291295647E+00   -8.3969569352E+00   -8.3650289750E+00
-8.3333429040E+00   -8.3018959841E+00   -8.2706855183E+00   -8.2397088496E+00
-8.2089633611E+00   -8.1784464744E+00   -8.1481556495E+00   -8.1180883836E+00
-8.0882422108E+00   -8.0586147013E+00   -8.0292034607E+00   -8.0000061295E+00
-7.9710203824E+00   -7.9422439273E+00   -7.9136745056E+00   -7.8853098906E+00
-7.8571478878E+00   -7.8291863336E+00   -7.8014230954E+00   -7.7738560704E+00
-7.7464831858E+00   -7.7193023975E+00   -7.6923116904E+00   -7.6655090771E+00
-7.6388925981E+00   -7.6124603210E+00   -7.5862103399E+00   -7.5601407752E+00
-7.5342497731E+00   -7.5085355051E+00   -7.4829961676E+00   -7.4576299813E+00
-7.4324351912E+00   -7.4074100659E+00   -7.3825528971E+00   -7.3578619994E+00
-7.3333357101E+00   -7.3089723883E+00   -7.2847704151E+00   -7.2607281927E+00
-7.2368441447E+00   -7.2131167151E+00   -7.1895443682E+00   -7.1661255886E+00
-7.1428588804E+00   -7.1197427670E+00   -7.0967757911E+00   -7.0739565139E+00
-7.0512835152E+00   -7.0287553929E+00   -7.0063707628E+00   -6.9841282583E+00
-6.9620265299E+00   -6.9400642454E+00   -6.9182400893E+00   -6.8965527624E+00
-6.8750009821E+00   -6.8535834814E+00   -6.8322990093E+00   -6.8111463302E+00
-6.7901242237E+00   -6.7692314846E+00   -6.7484669224E+00   -6.7278293610E+00
-6.7073176390E+00   -6.6869306087E+00   -6.6666671366E+00   -6.6465261028E+00
-6.6265064010E+00   -6.6066069381E+00   -6.5868266340E+00   -6.5671644217E+00
-6.5476192467E+00   -6.5281900672E+00   -6.5088758536E+00   -6.4896755885E+00
-6.4705882665E+00   -6.4516128939E+00   -6.4327484887E+00   -6.4139940804E+00
-6.3953487096E+00   -6.3768114282E+00   -6.3583812990E+00   -6.3400573957E+00
-6.3218388024E+00   -6.3037246139E+00   -6.2857139353E+00   -6.2678058820E+00
-6.2499995792E+00   -6.2322941622E+00   -6.2146887761E+00   -6.1971825755E+00
-6.1797747246E+00   -6.1624643969E+00   -6.1452507752E+00   -6.1281330513E+00
-6.1111104261E+00   -6.0941821093E+00   -6.0773473193E+00   -6.0606052832E+00
-6.0439552365E+00   -6.0273964232E+00   -6.0109280954E+00   -5.9945495135E+00
-5.9782599458E+00   -5.9620586686E+00   -5.9459449661E+00   -5.9299181301E+00
-5.9139774602E+00   -5.8981222631E+00   -5.8823518534E+00   -5.8666655528E+00
-5.8510626901E+00   -5.8355426014E+00   -5.8201046298E+00   -5.8047481252E+00
-5.7894724445E+00   -5.7742769513E+00   -5.7591610159E+00   -5.7441240150E+00
-5.7291653320E+00   -5.7142843567E+00   -5.6994804851E+00   -5.6847531194E+00
-5.6701016682E+00   -5.6555255459E+00   -5.6410241732E+00   -5.6265969765E+00
-5.6122433881E+00   -5.5979628462E+00   -5.5837547946E+00   -5.5696186826E+00
-5.5555539653E+00   -5.5415601032E+00   -5.5276365623E+00   -5.5137828137E+00
-5.4999983340E+00   -5.4862826051E+00   -5.4726351139E+00   -5.4590553523E+00
-5.4455428175E+00   -5.4320970114E+00   -5.4187174411E+00   -5.4054036182E+00
-5.3921550594E+00   -5.3789712860E+00   -5.3658518238E+00   -5.3527962036E+00
-5.3398039603E+00   -5.3268746338E+00   -5.3140077679E+00   -5.3012029113E+00
-5.2884596167E+00   -5.2757774413E+00   -5.2631559463E+00   -5.2505946974E+00
-5.2380932643E+00   -5.2256512206E+00   -5.2132681441E+00   -5.2009436168E+00
-5.1886772242E+00   -5.1764685561E+00   -5.1643172059E+00   -5.1522227710E+00
-5.1401848524E+00   -5.1282030549E+00   -5.1162769869E+00   -5.1044062606E+00
-5.0925904916E+00   -5.0808292992E+00   -5.0691223060E+00   -5.0574691384E+00
-5.0458694260E+00   -5.0343228018E+00   -5.0228289021E+00   -5.0113873668E+00
-4.9999978387E+00   -4.9886599640E+00   -4.9773733923E+00   -4.9661377760E+00
-4.9549527708E+00   -4.9438180356E+00   -4.9327332323E+00   -4.9216980257E+00
-4.9107120836E+00   -4.8997750770E+00   -4.8888866797E+00   -4.8780465681E+00
-4.8672544220E+00   -4.8565099235E+00   -4.8458127580E+00   -4.8351626132E+00
-4.8245591799E+00   -4.8140021514E+00   -4.8034912238E+00   -4.7930260956E+00
-4.7826064684E+00   -4.7722320458E+00   -4.7619025345E+00   -4.7516176433E+00
-4.7413770839E+00   -4.7311805701E+00   -4.7210278185E+00   -4.7109185479E+00
-4.7008524795E+00   -4.6908293372E+00   -4.6808488468E+00   -4.6709107366E+00
-4.6610147374E+00   -4.6511605820E+00   -4.6413480056E+00   -4.6315767455E+00
-4.6218465414E+00   -4.6121571351E+00   -4.6025082704E+00   -4.5928996936E+00
-4.5833311527E+00   -4.5738023982E+00   -4.5643131823E+00   -4.5548632594E+00
-4.5454523861E+00   -4.5360803207E+00   -4.5267468238E+00   -4.5174516576E+00
-4.5081945867E+00   -4.4989753772E+00   -4.4897937973E+00   -4.4806496172E+00
-4.4715426088E+00   -4.4624725459E+00   -4.4534392041E+00   -4.4444423608E+00
-4.4354817954E+00   -4.4265572887E+00   -4.4176686237E+00   -4.4088155848E+00
-4.3999979582E+00   -4.3912155320E+00   -4.3824680956E+00   -4.3737554406E+00
-4.3650773597E+00   -4.3564336476E+00   -4.3478241006E+00   -4.3392485165E+00
-4.3307066947E+00   -4.3221984362E+00   -4.3137235436E+00   -4.3052818210E+00
-4.2968730740E+00   -4.2884971098E+00   -4.2801537371E+00   -4.2718427660E+00
-4.2635640080E+00   -4.2553172764E+00   -4.2471023855E+00   -4.2389191514E+00
-4.2307673914E+00   -4.2226469243E+00   -4.2145575701E+00   -4.2064991506E+00
-4.1984714885E+00   -4.1904744080E+00   -4.1825077348E+00   -4.1745712958E+00
-4.1666649191E+00   -4.1587884343E+00   -4.1509416722E+00   -4.1431244648E+00
-4.1353366456E+00   -4.1275780489E+00   -4.1198485108E+00   -4.1121478682E+00
-4.1044759595E+00   -4.0968326240E+00   -4.0892177024E+00   -4.0816310367E+00
-4.0740724698E+00   -4.0665418459E+00   -4.0590390103E+00   -4.0515638095E+00
-4.0441160911E+00   -4.0366957039E+00   -4.0293024976E+00   -4.0219363231E+00
-4.0145970325E+00   -4.0072844789E+00   -3.9999985165E+00   -3.9927390003E+00
-3.9855057868E+00   -3.9782987332E+00   -3.9711176979E+00   -3.9639625402E+00
-3.9568331204E+00   -3.9497293000E+00   -3.9426509414E+00   -3.9355979078E+00
-3.9285700636E+00   -3.9215672741E+00   -3.9145894056E+00   -3.9076363252E+00
-3.9007079011E+00   -3.8938040024E+00   -3.8869244991E+00   -3.8800692621E+00
-3.8732381632E+00   -3.8664310752E+00   -3.8596478716E+00   -3.8528884271E+00
-3.8461526170E+00   -3.8394403175E+00   -3.8327514057E+00   -3.8260857597E+00
-3.8194432583E+00   -3.8128237811E+00   -3.8062272086E+00   -3.7996534221E+00
-3.7931023038E+00   -3.7865737367E+00   -3.7800676044E+00   -3.7735837916E+00
-3.7671221835E+00   -3.7606826664E+00   -3.7542651270E+00   -3.7478694532E+00
-3.7414955332E+00   -3.7351432564E+00   -3.7288125127E+00   -3.7225031927E+00
-3.7162151880E+00   -3.7099483906E+00   -3.7037026934E+00   -3.6974779901E+00
-3.6912741750E+00   -3.6850911432E+00   -3.6789287902E+00   -3.6727870127E+00
</PP_LOCAL>
<PP_NONLOCAL>
<PP_BETA.1
type="real"
size="600"
columns="4"
index="1"
angular_momentum="0"
cutoff_radius_index=" 172"
cutoff_radius="    1.7100000000E+00" >
3.4766119983E-09    7.5078284674E-02    1.5004636982E-01    2.2479290409E-01
2.9920427035E-01    3.7316354660E-01    4.4654957697E-01    5.1923618511E-01
5.9109155914E-01    6.6197783284E-01    7.3175088313E-01    8.0026035855E-01
8.6734994760E-01    9.3285789023E-01    9.9661772919E-01    1.0584592926E+00
1.1182098924E+00    1.1756957191E+00    1.2307434068E+00    1.2831817381E+00
1.3328434570E+00    1.3795671507E+00    1.4231991629E+00    1.4635954974E+00
1.5006236714E+00    1.5341644792E+00    1.5641136256E+00    1.5903831951E+00
1.6129029221E+00    1.6316212336E+00    1.6465060409E+00    1.6575452597E+00
1.6647470474E+00    1.6681397490E+00    1.6677715513E+00    1.6637098520E+00
1.6560403538E+00    1.6448659027E+00    1.6303050943E+00    1.6124906747E+00
1.5915677722E+00    1.5676919933E+00    1.5410274256E+00    1.5117445870E+00
1.4800183654E+00    1.4460259909E+00    1.4099450820E+00    1.3719518064E+00
1.3322191927E+00    1.2909156261E+00    1.2482035571E+00    1.2042384465E+00
1.1591679641E+00    1.1131314526E+00    1.0662596618E+00    1.0186747511E+00
9.7049055198E-01    9.2181307572E-01    8.7274124519E-01    8.2336782436E-01
7.7378051380E-01    7.2406317621E-01    6.7429715273E-01    6.2456262813E-01
5.7494000149E-01    5.2551121865E-01    4.7636102315E-01    4.2757808416E-01
3.7925596273E-01    3.3149388102E-01    2.8439726427E-01    2.3807803027E-01
1.9265460733E-01    1.4825166849E-01    1.0499957660E-01    6.3033542215E-02
2.2492503697E-02   -1.6482253981E-02   -5.3748718144E-02   -8.9165974995E-02
-1.2259620786E-01   -1.5390682590E-01   -1.8297267787E-01   -2.0967830206E-01
-2.3392016141E-01   -2.5560881171E-01   -2.7467095090E-01   -2.9105129869E-01
-3.0471425839E-01   -3.1564531639E-01   -3.2385213940E-01   -3.2936533550E-01
-3.3223885133E-01   -3.3254998538E-01   -3.3039900503E-01   -3.2590836345E-01
-3.1922152093E-01   -3.1050138369E-01   -2.9992838206E-01   -2.8769821726E-01
-2.7401931432E-01   -2.5911002505E-01   -2.4319563101E-01   -2.2650520159E-01
-2.0926836577E-01   -1.9171205911E-01   -1.7405730850E-01   -1.5651611740E-01
-1.3928851271E-01   -1.2255981161E-01   -1.0649816287E-01   -9.1252411784E-02
-7.6950331527E-02   -6.3697256000E-02   -5.1575141276E-02   -4.0642074873E-02
-3.0932240796E-02   -2.2456339712E-02   -1.5202454383E-02   -9.1373407954E-03
-4.2081150502E-03   -3.4429776594E-04    2.5398271938E-03    4.5425949453E-03
5.7721405724E-03    6.3434410707E-03    6.3752864184E-03    5.9872499989E-03
5.2967173380E-03    4.4160603959E-03    3.4499282853E-03    2.4934171284E-03
1.6289610618E-03    9.1635961513E-04    4.1787956613E-04    1.7096668738E-04
6.7169984250E-05    9.6700182149E-06   -5.5817701260E-06    2.2389912678E-07
1.2405468004E-06   -2.0006511643E-07   -1.3431869628E-07    0.0000000000E+00
0.0000000000E+00    0.0000000000E+00    0.0000000000E+00    0.0000000000E+00
0.0000000000E+00    0.0000000000E+00    0.0000000000E+00    0.0000000000E+00
0.0000000000E+00    0.0000000000E+00    0.0000000000E+00    0.0000000000E+00
0.0000000000E+00    0.0000000000E+00    0.0000000000E+00    0.0000000000E+00
0.0000000000E+00    0.0000000000E+00    0.0000000000E+00    0.0000000000E+00
0.0000000000E+00    0.0000000000E+00    0.0000000000E+00    0.0000000000E+00
0.0000000000E+00    0.0000000000E+00    0.0000000000E+00    0.0000000000E+00
0. 0. 0. 0.
0. 0. 0. 0.
0. 0. 0. 0.
0. 0. 0. 0.
0. 0. 0. 0.
0. 0. 0. 0.
0. 0. 0. 0.
0. 0. 0. 0.
0. 0. 0. 0.
0. 0. 0. 0.
0. 0. 0. 0.
0. 0. 0. 0.
0. 0. 0. 0.
0. 0. 0. 0.
0. 0. 0. 0.
0. 0. 0. 0.
0. 0. 0. 0.
0. 0. 0. 0.
0. 0. 0. 0.
0. 0. 0. 0.
0. 0. 0. 0.
0. 0. 0. 0.
0. 0. 0. 0.
0. 0. 0. 0.
0. 0. 0. 0.
0. 0. 0. 0.
0. 0. 0. 0.
0. 0. 0. 0.
0. 0. 0. 0.
0. 0. 0. 0.
0. 0. 0. 0.
0. 0. 0. 0.
0. 0. 0. 0.
0. 0. 0. 0.
0. 0. 0. 0.
0. 0. 0. 0.
0. 0. 0. 0.
0. 0. 0. 0.
0. 0. 0. 0.
0. 0. 0. 0.
0. 0. 0. 0.
0. 0. 0. 0.
0. 0. 0. 0.
0. 0. 0. 0.
0. 0. 0. 0.
0. 0. 0. 0.
0. 0. 0. 0.
0. 0. 0. 0.
0. 0. 0. 0.
0. 0. 0. 0.
0. 0. 0. 0.
0. 0. 0. 0.
0. 0. 0. 0.
0. 0. 0. 0.
0. 0. 0. 0.
0. 0. 0. 0.
0. 0. 0. 0.
0. 0. 0. 0.
0. 0. 0. 0.
0. 0. 0. 0.
0. 0. 0. 0.
0. 0. 0. 0.
0. 0. 0. 0.
0. 0. 0. 0.
0. 0. 0. 0.
0. 0. 0. 0.
0. 0. 0. 0.
0. 0. 0. 0.
0. 0. 0. 0.
0. 0. 0. 0.
0. 0. 0. 0.