<UPF version="2.0.1">
<PP_INFO>
NOTE!!!!
This file is trimmed with a mesh size of 600 from the original version.
Trimming performed at 2023-03-31 09:10:04.933472 by trim_upf.py version 0.1.0

This pseudopotential file has been produced using the code
ONCVPSP  (Optimized Norm-Conservinng Vanderbilt PSeudopotential)
scalar-relativistic version 3.3.0 08/16/2017 by D. R. Hamann
The code is available through a link at URL www.mat-simresearch.com.
Documentation with the package provides a full discription of the
input data below.
While it is not required under the terms of the GNU GPL, it is
suggested that you cite D. R. Hamann, Phys. Rev. B 88, 085117 (2013)
in any publication using these pseudopotentials.
<PP_INPUTFILE>
# ATOM AND REFERENCE CONFIGURATION
# atsym  z   nc   nv     iexc    psfile
Se 34.00    5    3       4      upf
#
#   n    l    f        energy (Ha)
1    0    2.00
2    0    2.00
2    1    6.00
3    0    2.00
3    1    6.00
3    2   10.00
4    0    2.00
4    1    4.00
#
# PSEUDOPOTENTIAL AND OPTIMIZATION
# lmax
2
#
#   l,   rc,      ep,       ncon, nbas, qcut
0   1.80000  -0.63530    4    8   5.40000
1   1.50000  -0.23929    4    8   7.80000
2   1.90000  -1.95230    4    9   9.20000
#
# LOCAL POTENTIAL
# lloc, lpopt,  rc(5),   dvloc0
4    5   1.50000      0.00000
#
# VANDERBILT-KLEINMAN-BYLANDER PROJECTORs
# l, nproj, debl
0    2   4.50000
1    2   4.50000
2    2   2.00000
#
# MODEL CORE CHARGE
# icmod, fcfact, rcfact
3   5.00000   1.40000
#
# LOG DERIVATIVE ANALYSIS
# epsh1, epsh2, depsh
-12.00   12.00    0.02
#
# OUTPUT GRID
# rlmax, drl
6.00    0.01
#
# TEST CONFIGURATIONS
# ncnf
0
# nvcnf
#   n    l    f
</PP_INPUTFILE>
</PP_INFO>
<!--                               -->
<!-- END OF HUMAN READABLE SECTION -->
<!--                               -->
<PP_HEADER
generated="Generated using ONCVPSP code by D. R. Hamann"
author="anonymous"
date="171031"
comment=""
element="Se"
pseudo_type="NC"
relativistic="scalar"
is_ultrasoft="F"
is_paw="F"
is_coulomb="F"
has_so="F"
has_wfc="F"
has_gipaw="F"
core_correction="T"
functional="PBE"
z_valence="   16.00"
total_psenergy="  -2.22478656440E+02"
rho_cutoff="   1.21300000000E+01"
l_max="2"
l_local="-1"
mesh_size="   600"
number_of_wfc="3"
number_of_proj="6"/>
<PP_MESH>
<PP_R type="real"  size="600" columns="8">
0.0000    0.0100    0.0200    0.0300    0.0400    0.0500    0.0600    0.0700
0.0800    0.0900    0.1000    0.1100    0.1200    0.1300    0.1400    0.1500
0.1600    0.1700    0.1800    0.1900    0.2000    0.2100    0.2200    0.2300
0.2400    0.2500    0.2600    0.2700    0.2800    0.2900    0.3000    0.3100
0.3200    0.3300    0.3400    0.3500    0.3600    0.3700    0.3800    0.3900
0.4000    0.4100    0.4200    0.4300    0.4400    0.4500    0.4600    0.4700
0.4800    0.4900    0.5000    0.5100    0.5200    0.5300    0.5400    0.5500
0.5600    0.5700    0.5800    0.5900    0.6000    0.6100    0.6200    0.6300
0.6400    0.6500    0.6600    0.6700    0.6800    0.6900    0.7000    0.7100
0.7200    0.7300    0.7400    0.7500    0.7600    0.7700    0.7800    0.7900
0.8000    0.8100    0.8200    0.8300    0.8400    0.8500    0.8600    0.8700
0.8800    0.8900    0.9000    0.9100    0.9200    0.9300    0.9400    0.9500
0.9600    0.9700    0.9800    0.9900    1.0000    1.0100    1.0200    1.0300
1.0400    1.0500    1.0600    1.0700    1.0800    1.0900    1.1000    1.1100
1.1200    1.1300    1.1400    1.1500    1.1600    1.1700    1.1800    1.1900
1.2000    1.2100    1.2200    1.2300    1.2400    1.2500    1.2600    1.2700
1.2800    1.2900    1.3000    1.3100    1.3200    1.3300    1.3400    1.3500
1.3600    1.3700    1.3800    1.3900    1.4000    1.4100    1.4200    1.4300
1.4400    1.4500    1.4600    1.4700    1.4800    1.4900    1.5000    1.5100
1.5200    1.5300    1.5400    1.5500    1.5600    1.5700    1.5800    1.5900
1.6000    1.6100    1.6200    1.6300    1.6400    1.6500    1.6600    1.6700
1.6800    1.6900    1.7000    1.7100    1.7200    1.7300    1.7400    1.7500
1.7600    1.7700    1.7800    1.7900    1.8000    1.8100    1.8200    1.8300
1.8400    1.8500    1.8600    1.8700    1.8800    1.8900    1.9000    1.9100
1.9200    1.9300    1.9400    1.9500    1.9600    1.9700    1.9800    1.9900
2.0000    2.0100    2.0200    2.0300    2.0400    2.0500    2.0600    2.0700
2.0800    2.0900    2.1000    2.1100    2.1200    2.1300    2.1400    2.1500
2.1600    2.1700    2.1800    2.1900    2.2000    2.2100    2.2200    2.2300
2.2400    2.2500    2.2600    2.2700    2.2800    2.2900    2.3000    2.3100
2.3200    2.3300    2.3400    2.3500    2.3600    2.3700    2.3800    2.3900
2.4000    2.4100    2.4200    2.4300    2.4400    2.4500    2.4600    2.4700
2.4800    2.4900    2.5000    2.5100    2.5200    2.5300    2.5400    2.5500
2.5600    2.5700    2.5800    2.5900    2.6000    2.6100    2.6200    2.6300
2.6400    2.6500    2.6600    2.6700    2.6800    2.6900    2.7000    2.7100
2.7200    2.7300    2.7400    2.7500    2.7600    2.7700    2.7800    2.7900
2.8000    2.8100    2.8200    2.8300    2.8400    2.8500    2.8600    2.8700
2.8800    2.8900    2.9000    2.9100    2.9200    2.9300    2.9400    2.9500
2.9600    2.9700    2.9800    2.9900    3.0000    3.0100    3.0200    3.0300
3.0400    3.0500    3.0600    3.0700    3.0800    3.0900    3.1000    3.1100
3.1200    3.1300    3.1400    3.1500    3.1600    3.1700    3.1800    3.1900
3.2000    3.2100    3.2200    3.2300    3.2400    3.2500    3.2600    3.2700
3.2800    3.2900    3.3000    3.3100    3.3200    3.3300    3.3400    3.3500
3.3600    3.3700    3.3800    3.3900    3.4000    3.4100    3.4200    3.4300
3.4400    3.4500    3.4600    3.4700    3.4800    3.4900    3.5000    3.5100
3.5200    3.5300    3.5400    3.5500    3.5600    3.5700    3.5800    3.5900
3.6000    3.6100    3.6200    3.6300    3.6400    3.6500    3.6600    3.6700
3.6800    3.6900    3.7000    3.7100    3.7200    3.7300    3.7400    3.7500
3.7600    3.7700    3.7800    3.7900    3.8000    3.8100    3.8200    3.8300
3.8400    3.8500    3.8600    3.8700    3.8800    3.8900    3.9000    3.9100
3.9200    3.9300    3.9400    3.9500    3.9600    3.9700    3.9800    3.9900
4.0000    4.0100    4.0200    4.0300    4.0400    4.0500    4.0600    4.0700
4.0800    4.0900    4.1000    4.1100    4.1200    4.1300    4.1400    4.1500
4.1600    4.1700    4.1800    4.1900    4.2000    4.2100    4.2200    4.2300
4.2400    4.2500    4.2600    4.2700    4.2800    4.2900    4.3000    4.3100
4.3200    4.3300    4.3400    4.3500    4.3600    4.3700    4.3800    4.3900
4.4000    4.4100    4.4200    4.4300    4.4400    4.4500    4.4600    4.4700
4.4800    4.4900    4.5000    4.5100    4.5200    4.5300    4.5400    4.5500
4.5600    4.5700    4.5800    4.5900    4.6000    4.6100    4.6200    4.6300
4.6400    4.6500    4.6600    4.6700    4.6800    4.6900    4.7000    4.7100
4.7200    4.7300    4.7400    4.7500    4.7600    4.7700    4.7800    4.7900
4.8000    4.8100    4.8200    4.8300    4.8400    4.8500    4.8600    4.8700
4.8800    4.8900    4.9000    4.9100    4.9200    4.9300    4.9400    4.9500
4.9600    4.9700    4.9800    4.9900    5.0000    5.0100    5.0200    5.0300
5.0400    5.0500    5.0600    5.0700    5.0800    5.0900    5.1000    5.1100
5.1200    5.1300    5.1400    5.1500    5.1600    5.1700    5.1800    5.1900
5.2000    5.2100    5.2200    5.2300    5.2400    5.2500    5.2600    5.2700
5.2800    5.2900    5.3000    5.3100    5.3200    5.3300    5.3400    5.3500
5.3600    5.3700    5.3800    5.3900    5.4000    5.4100    5.4200    5.4300
5.4400    5.4500    5.4600    5.4700    5.4800    5.4900    5.5000    5.5100
5.5200    5.5300    5.5400    5.5500    5.5600    5.5700    5.5800    5.5900
5.6000    5.6100    5.6200    5.6300    5.6400    5.6500    5.6600    5.6700
5.6800    5.6900    5.7000    5.7100    5.7200    5.7300    5.7400    5.7500
5.7600    5.7700    5.7800    5.7900    5.8000    5.8100    5.8200    5.8300
5.8400    5.8500    5.8600    5.8700    5.8800    5.8900    5.9000    5.9100
5.9200    5.9300    5.9400    5.9500    5.9600    5.9700    5.9800    5.9900
</PP_R>
<PP_RAB type="real"  size="600" columns="8">
0.0100    0.0100    0.0100    0.0100    0.0100    0.0100    0.0100    0.0100
0.0100    0.0100    0.0100    0.0100    0.0100    0.0100    0.0100    0.0100
0.0100    0.0100    0.0100    0.0100    0.0100    0.0100    0.0100    0.0100
0.0100    0.0100    0.0100    0.0100    0.0100    0.0100    0.0100    0.0100
0.0100    0.0100    0.0100    0.0100    0.0100    0.0100    0.0100    0.0100
0.0100    0.0100    0.0100    0.0100    0.0100    0.0100    0.0100    0.0100
0.0100    0.0100    0.0100    0.0100    0.0100    0.0100    0.0100    0.0100
0.0100    0.0100    0.0100    0.0100    0.0100    0.0100    0.0100    0.0100
0.0100    0.0100    0.0100    0.0100    0.0100    0.0100    0.0100    0.0100
0.0100    0.0100    0.0100    0.0100    0.0100    0.0100    0.0100    0.0100
0.0100    0.0100    0.0100    0.0100    0.0100    0.0100    0.0100    0.0100
0.0100    0.0100    0.0100    0.0100    0.0100    0.0100    0.0100    0.0100
0.0100    0.0100    0.0100    0.0100    0.0100    0.0100    0.0100    0.0100
0.0100    0.0100    0.0100    0.0100    0.0100    0.0100    0.0100    0.0100
0.0100    0.0100    0.0100    0.0100    0.0100    0.0100    0.0100    0.0100
0.0100    0.0100    0.0100    0.0100    0.0100    0.0100    0.0100    0.0100
0.0100    0.0100    0.0100    0.0100    0.0100    0.0100    0.0100    0.0100
0.0100    0.0100    0.0100    0.0100    0.0100    0.0100    0.0100    0.0100
0.0100    0.0100    0.0100    0.0100    0.0100    0.0100    0.0100    0.0100
0.0100    0.0100    0.0100    0.0100    0.0100    0.0100    0.0100    0.0100
0.0100    0.0100    0.0100    0.0100    0.0100    0.0100    0.0100    0.0100
0.0100    0.0100    0.0100    0.0100    0.0100    0.0100    0.0100    0.0100
0.0100    0.0100    0.0100    0.0100    0.0100    0.0100    0.0100    0.0100
0.0100    0.0100    0.0100    0.0100    0.0100    0.0100    0.0100    0.0100
0.0100    0.0100    0.0100    0.0100    0.0100    0.0100    0.0100    0.0100
0.0100    0.0100    0.0100    0.0100    0.0100    0.0100    0.0100    0.0100
0.0100    0.0100    0.0100    0.0100    0.0100    0.0100    0.0100    0.0100
0.0100    0.0100    0.0100    0.0100    0.0100    0.0100    0.0100    0.0100
0.0100    0.0100    0.0100    0.0100    0.0100    0.0100    0.0100    0.0100
0.0100    0.0100    0.0100    0.0100    0.0100    0.0100    0.0100    0.0100
0.0100    0.0100    0.0100    0.0100    0.0100    0.0100    0.0100    0.0100
0.0100    0.0100    0.0100    0.0100    0.0100    0.0100    0.0100    0.0100
0.0100    0.0100    0.0100    0.0100    0.0100    0.0100    0.0100    0.0100
0.0100    0.0100    0.0100    0.0100    0.0100    0.0100    0.0100    0.0100
0.0100    0.0100    0.0100    0.0100    0.0100    0.0100    0.0100    0.0100
0.0100    0.0100    0.0100    0.0100    0.0100    0.0100    0.0100    0.0100
0.0100    0.0100    0.0100    0.0100    0.0100    0.0100    0.0100    0.0100
0.0100    0.0100    0.0100    0.0100    0.0100    0.0100    0.0100    0.0100
0.0100    0.0100    0.0100    0.0100    0.0100    0.0100    0.0100    0.0100
0.0100    0.0100    0.0100    0.0100    0.0100    0.0100    0.0100    0.0100
0.0100    0.0100    0.0100    0.0100    0.0100    0.0100    0.0100    0.0100
0.0100    0.0100    0.0100    0.0100    0.0100    0.0100    0.0100    0.0100
0.0100    0.0100    0.0100    0.0100    0.0100    0.0100    0.0100    0.0100
0.0100    0.0100    0.0100    0.0100    0.0100    0.0100    0.0100    0.0100
0.0100    0.0100    0.0100    0.0100    0.0100    0.0100    0.0100    0.0100
0.0100    0.0100    0.0100    0.0100    0.0100    0.0100    0.0100    0.0100
0.0100    0.0100    0.0100    0.0100    0.0100    0.0100    0.0100    0.0100
0.0100    0.0100    0.0100    0.0100    0.0100    0.0100    0.0100    0.0100
0.0100    0.0100    0.0100    0.0100    0.0100    0.0100    0.0100    0.0100
0.0100    0.0100    0.0100    0.0100    0.0100    0.0100    0.0100    0.0100
0.0100    0.0100    0.0100    0.0100    0.0100    0.0100    0.0100    0.0100
0.0100    0.0100    0.0100    0.0100    0.0100    0.0100    0.0100    0.0100
0.0100    0.0100    0.0100    0.0100    0.0100    0.0100    0.0100    0.0100
0.0100    0.0100    0.0100    0.0100    0.0100    0.0100    0.0100    0.0100
0.0100    0.0100    0.0100    0.0100    0.0100    0.0100    0.0100    0.0100
0.0100    0.0100    0.0100    0.0100    0.0100    0.0100    0.0100    0.0100
0.0100    0.0100    0.0100    0.0100    0.0100    0.0100    0.0100    0.0100
0.0100    0.0100    0.0100    0.0100    0.0100    0.0100    0.0100    0.0100
0.0100    0.0100    0.0100    0.0100    0.0100    0.0100    0.0100    0.0100
0.0100    0.0100    0.0100    0.0100    0.0100    0.0100    0.0100    0.0100
0.0100    0.0100    0.0100    0.0100    0.0100    0.0100    0.0100    0.0100
0.0100    0.0100    0.0100    0.0100    0.0100    0.0100    0.0100    0.0100
0.0100    0.0100    0.0100    0.0100    0.0100    0.0100    0.0100    0.0100
0.0100    0.0100    0.0100    0.0100    0.0100    0.0100    0.0100    0.0100
0.0100    0.0100    0.0100    0.0100    0.0100    0.0100    0.0100    0.0100
0.0100    0.0100    0.0100    0.0100    0.0100    0.0100    0.0100    0.0100
0.0100    0.0100    0.0100    0.0100    0.0100    0.0100    0.0100    0.0100
0.0100    0.0100    0.0100    0.0100    0.0100    0.0100    0.0100    0.0100
0.0100    0.0100    0.0100    0.0100    0.0100    0.0100    0.0100    0.0100
0.0100    0.0100    0.0100    0.0100    0.0100    0.0100    0.0100    0.0100
0.0100    0.0100    0.0100    0.0100    0.0100    0.0100    0.0100    0.0100
0.0100    0.0100    0.0100    0.0100    0.0100    0.0100    0.0100    0.0100
0.0100    0.0100    0.0100    0.0100    0.0100    0.0100    0.0100    0.0100
0.0100    0.0100    0.0100    0.0100    0.0100    0.0100    0.0100    0.0100
0.0100    0.0100    0.0100    0.0100    0.0100    0.0100    0.0100    0.0100
</PP_RAB>
</PP_MESH>
<PP_LOCAL type="real"  size="600" columns="4">
-4.0371581551E+01   -4.0371168045E+01   -4.0369928137E+01   -4.0367863663E+01
-4.0364977466E+01   -4.0361273094E+01   -4.0356754392E+01   -4.0351424996E+01
-4.0345287752E+01   -4.0338344078E+01   -4.0330593289E+01   -4.0322031903E+01
-4.0312652946E+01   -4.0302445287E+01   -4.0291392994E+01   -4.0279474752E+01
-4.0266663346E+01   -4.0252925205E+01   -4.0238220042E+01   -4.0222500576E+01
-4.0205712343E+01   -4.0187793608E+01   -4.0168675369E+01   -4.0148281458E+01
-4.0126528741E+01   -4.0103327400E+01   -4.0078581319E+01   -4.0052188538E+01
-4.0024041805E+01   -3.9994029182E+01   -3.9962034729E+01   -3.9927939238E+01
-3.9891621007E+01   -3.9852956654E+01   -3.9811821948E+01   -3.9768092642E+01
-3.9721645301E+01   -3.9672358110E+01   -3.9620111644E+01   -3.9564789593E+01
-3.9506279431E+01   -3.9444473020E+01   -3.9379267154E+01   -3.9310564023E+01
-3.9238271625E+01   -3.9162304105E+01   -3.9082582048E+01   -3.8999032728E+01
-3.8911590323E+01   -3.8820196110E+01   -3.8724798655E+01   -3.8625353997E+01
-3.8521825851E+01   -3.8414185819E+01   -3.8302413629E+01   -3.8186497393E+01
-3.8066433884E+01   -3.7942228828E+01   -3.7813897209E+01   -3.7681463556E+01
-3.7544962230E+01   -3.7404437665E+01   -3.7259944564E+01   -3.7111548037E+01
-3.6959323647E+01   -3.6803357367E+01   -3.6643745434E+01   -3.6480594081E+01
-3.6314019161E+01   -3.6144145643E+01   -3.5971107012E+01   -3.5795044557E+01
-3.5616106577E+01   -3.5434447518E+01   -3.5250227057E+01   -3.5063609157E+01
-3.4874761102E+01   -3.4683852538E+01   -3.4491054535E+01   -3.4296538666E+01
-3.4100476133E+01   -3.3903036925E+01   -3.3704389020E+01   -3.3504697626E+01
-3.3304124458E+01   -3.3102827042E+01   -3.2900958049E+01   -3.2698664645E+01
-3.2496087850E+01   -3.2293361916E+01   -3.2090613708E+01   -3.1887962097E+01
-3.1685517366E+01   -3.1483380650E+01   -3.1281643406E+01   -3.1080386944E+01
-3.0879682036E+01   -3.0679588634E+01   -3.0480155725E+01   -3.0281421351E+01
-3.0083412840E+01   -2.9886147260E+01   -2.9689632141E+01   -2.9493866466E+01
-2.9298841955E+01   -2.9104544613E+01   -2.8910956547E+01   -2.8718057982E+01
-2.8525829442E+01   -2.8334254007E+01   -2.8143319572E+01   -2.7953021008E+01
-2.7763362134E+01   -2.7574357404E+01   -2.7386033231E+01   -2.7198428865E+01
-2.7011596772E+01   -2.6825602472E+01   -2.6640523790E+01   -2.6456449513E+01
-2.6273477433E+01   -2.6091711780E+01   -2.5911260046E+01   -2.5732229254E+01
-2.5554721689E+01   -2.5378830244E+01   -2.5204633508E+01   -2.5032190835E+01
-2.4861537741E+01   -2.4692681969E+01   -2.4525600725E+01   -2.4360239514E+01
-2.4196512944E+01   -2.4034307917E+01   -2.3873489040E+01   -2.3713906343E+01
-2.3555404630E+01   -2.3397833788E+01   -2.3241059184E+01   -2.3084971036E+01
-2.2929492050E+01   -2.2774582199E+01   -2.2620240910E+01   -2.2466505746E+01
-2.2313448731E+01   -2.2161169941E+01   -2.2009790468E+01   -2.1859443999E+01
-2.1710269232E+01   -2.1562402061E+01   -2.1415960050E+01   -2.1271035744E+01
-2.1127691063E+01   -2.0985967964E+01   -2.0845915369E+01   -2.0707580553E+01
-2.0571002144E+01   -2.0436204010E+01   -2.0303186934E+01   -2.0171943281E+01
-2.0042463794E+01   -1.9914731640E+01   -1.9788723029E+01   -1.9664410738E+01
-1.9541765131E+01   -1.9420754645E+01   -1.9301346604E+01   -1.9183507860E+01
-1.9067205261E+01   -1.8952405992E+01   -1.8839077845E+01   -1.8727189393E+01
-1.8616710116E+01   -1.8507610462E+01   -1.8399861876E+01   -1.8293436836E+01
-1.8188308801E+01   -1.8084452130E+01   -1.7981842099E+01   -1.7880454732E+01
-1.7780266829E+01   -1.7681256970E+01   -1.7583406039E+01   -1.7486696607E+01
-1.7391113654E+01   -1.7296642359E+01   -1.7203264848E+01   -1.7110961573E+01
-1.7019713114E+01   -1.6929499077E+01   -1.6840296622E+01   -1.6752080408E+01
-1.6664822971E+01   -1.6578492393E+01   -1.6493059040E+01   -1.6408505535E+01
-1.6324819867E+01   -1.6241991651E+01   -1.6160010488E+01   -1.6078865107E+01
-1.5998540138E+01   -1.5919019520E+01   -1.5840290515E+01   -1.5762341290E+01
-1.5685159812E+01   -1.5608733483E+01   -1.5533049986E+01   -1.5458097579E+01
-1.5383864735E+01   -1.5310340195E+01   -1.5237512966E+01   -1.5165372350E+01
-1.5093907946E+01   -1.5023109643E+01   -1.4952967622E+01   -1.4883472352E+01
-1.4814614583E+01   -1.4746385343E+01   -1.4678775924E+01   -1.4611777876E+01
-1.4545382995E+01   -1.4479583309E+01   -1.4414371069E+01   -1.4349738731E+01
-1.4285678944E+01   -1.4222184536E+01   -1.4159248502E+01   -1.4096863984E+01
-1.4035024264E+01   -1.3973722749E+01   -1.3912952955E+01   -1.3852708501E+01
-1.3792983094E+01   -1.3733770523E+01   -1.3675064647E+01   -1.3616859390E+01
-1.3559148734E+01   -1.3501926715E+01   -1.3445187417E+01   -1.3388924970E+01
-1.3333133549E+01   -1.3277807373E+01   -1.3222940706E+01   -1.3168527857E+01
-1.3114563183E+01   -1.3061041091E+01   -1.3007956040E+01   -1.2955302547E+01
-1.2903075187E+01   -1.2851268604E+01   -1.2799877507E+01   -1.2748896679E+01
-1.2698320979E+01   -1.2648145349E+01   -1.2598364812E+01   -1.2548974478E+01
-1.2499969551E+01   -1.2451345323E+01   -1.2403097206E+01   -1.2355220632E+01
-1.2307711155E+01   -1.2260564349E+01   -1.2213776176E+01   -1.2167342656E+01
-1.2121259839E+01   -1.2075523520E+01   -1.2030129361E+01   -1.1985073299E+01
-1.1940350836E+01   -1.1895957224E+01   -1.1851888091E+01   -1.1808140240E+01
-1.1764714291E+01   -1.1721609830E+01   -1.1678827463E+01   -1.1636360506E+01
-1.1594203505E+01   -1.1552349441E+01   -1.1510795158E+01   -1.1469537922E+01
-1.1428575356E+01   -1.1387904729E+01   -1.1347522606E+01   -1.1307425888E+01
-1.1267611426E+01   -1.1228076337E+01   -1.1188817692E+01   -1.1149832600E+01
-1.1111118212E+01   -1.1072671721E+01   -1.1034490356E+01   -1.0996571387E+01
-1.0958912117E+01   -1.0921509889E+01   -1.0884362081E+01   -1.0847466107E+01
-1.0810819414E+01   -1.0774419487E+01   -1.0738263841E+01   -1.0702350026E+01
-1.0666675625E+01   -1.0631238252E+01   -1.0596035553E+01   -1.0561065206E+01
-1.0526324917E+01   -1.0491812426E+01   -1.0457525497E+01   -1.0423461929E+01
-1.0389619546E+01   -1.0355996201E+01   -1.0322589774E+01   -1.0289398174E+01
-1.0256419335E+01   -1.0223651219E+01   -1.0191091812E+01   -1.0158739127E+01
-1.0126591201E+01   -1.0094646098E+01   -1.0062901904E+01   -1.0031356730E+01
-1.0000008710E+01   -9.9688560025E+00   -9.9378967871E+00   -9.9071292672E+00
-9.8765516680E+00   -9.8461622366E+00   -9.8159592415E+00   -9.7859409725E+00
-9.7561057402E+00   -9.7264518756E+00   -9.6969777301E+00   -9.6676816748E+00
-9.6385621008E+00   -9.6096174181E+00   -9.5808460560E+00   -9.5522464624E+00
-9.5238171038E+00   -9.4955564648E+00   -9.4674630479E+00   -9.4395353735E+00
-9.4117719791E+00   -9.3841714195E+00   -9.3567322664E+00   -9.3294531082E+00
-9.3023325495E+00   -9.2753692113E+00   -9.2485617305E+00   -9.2219087596E+00
-9.1954089667E+00   -9.1690610351E+00   -9.1428636631E+00   -9.1168155641E+00
-9.0909154657E+00   -9.0651621102E+00   -9.0395542541E+00   -9.0140906678E+00
-8.9887701356E+00   -8.9635914553E+00   -8.9385534383E+00   -8.9136549091E+00
-8.8888947054E+00   -8.8642716776E+00   -8.8397846889E+00   -8.8154326151E+00
-8.7912143442E+00   -8.7671287766E+00   -8.7431748244E+00   -8.7193514118E+00
-8.6956574747E+00   -8.6720919603E+00   -8.6486538275E+00   -8.6253420462E+00
-8.6021555974E+00   -8.5790934732E+00   -8.5561546762E+00   -8.5333382198E+00
-8.5106431280E+00   -8.4880684350E+00   -8.4656131852E+00   -8.4432764331E+00
-8.4210572433E+00   -8.3989546901E+00   -8.3769678575E+00   -8.3550958390E+00
-8.3333377377E+00   -8.3116926659E+00   -8.2901597451E+00   -8.2687381060E+00
-8.2474268881E+00   -8.2262252399E+00   -8.2051323184E+00   -8.1841472896E+00
-8.1632693276E+00   -8.1424976152E+00   -8.1218313433E+00   -8.1012697112E+00
-8.0808119261E+00   -8.0604572033E+00   -8.0402047660E+00   -8.0200538449E+00
-8.0000036789E+00   -7.9800535141E+00   -7.9602026042E+00   -7.9404502103E+00
-7.9207956010E+00   -7.9012380518E+00   -7.8817768456E+00   -7.8624112722E+00
-7.8431406285E+00   -7.8239642181E+00   -7.8048813515E+00   -7.7858913460E+00
-7.7669935252E+00   -7.7481872197E+00   -7.7294717663E+00   -7.7108465081E+00
-7.6923107948E+00   -7.6738639821E+00   -7.6555054320E+00   -7.6372345125E+00
-7.6190505978E+00   -7.6009530677E+00   -7.5829413083E+00   -7.5650147111E+00
-7.5471726737E+00   -7.5294145990E+00   -7.5117398960E+00   -7.4941479787E+00
-7.4766382670E+00   -7.4592101858E+00   -7.4418631659E+00   -7.4245966428E+00
-7.4074100576E+00   -7.3903028564E+00   -7.3732744905E+00   -7.3563244163E+00
-7.3394520949E+00   -7.3226569926E+00   -7.3059385806E+00   -7.2892963347E+00
-7.2727297357E+00   -7.2562382688E+00   -7.2398214242E+00   -7.2234786966E+00
-7.2072095850E+00   -7.1910135933E+00   -7.1748902296E+00   -7.1588390065E+00
-7.1428594408E+00   -7.1269510538E+00   -7.1111133709E+00   -7.0953459219E+00
-7.0796482406E+00   -7.0640198649E+00   -7.0484603369E+00   -7.0329692026E+00
-7.0175460121E+00   -7.0021903193E+00   -6.9869016822E+00   -6.9716796623E+00
-6.9565238254E+00   -6.9414337406E+00   -6.9264089811E+00   -6.9114491235E+00
-6.8965537482E+00   -6.8817224392E+00   -6.8669547841E+00   -6.8522503738E+00
-6.8376088031E+00   -6.8230296700E+00   -6.8085125759E+00   -6.7940571256E+00
-6.7796629274E+00   -6.7653295927E+00   -6.7510567364E+00   -6.7368439765E+00
-6.7226909342E+00   -6.7085972339E+00   -6.6945625032E+00   -6.6805863727E+00
-6.6666684762E+00   -6.6528084506E+00   -6.6390059355E+00   -6.6252605738E+00
-6.6115720112E+00   -6.5979398965E+00   -6.5843638810E+00   -6.5708436194E+00
-6.5573787687E+00   -6.5439689891E+00   -6.5306139434E+00   -6.5173132972E+00
-6.5040667187E+00   -6.4908738790E+00   -6.4777344517E+00   -6.4646481130E+00
-6.4516145419E+00   -6.4386334199E+00   -6.4257044310E+00   -6.4128272618E+00
-6.4000016013E+00   -6.3872271411E+00   -6.3745035753E+00   -6.3618306002E+00
-6.3492079148E+00   -6.3366352203E+00   -6.3241122203E+00   -6.3116386208E+00
-6.2992141300E+00   -6.2868384584E+00   -6.2745113190E+00   -6.2622324267E+00
-6.2500014990E+00   -6.2378182552E+00   -6.2256824170E+00   -6.2135937084E+00
-6.2015518553E+00   -6.1895565858E+00   -6.1776076302E+00   -6.1657047206E+00
-6.1538475915E+00   -6.1420359793E+00   -6.1302696223E+00   -6.1185482610E+00
-6.1068716378E+00   -6.0952394969E+00   -6.0836515848E+00   -6.0721076496E+00
-6.0606074415E+00   -6.0491507124E+00   -6.0377372163E+00   -6.0263667089E+00
-6.0150389479E+00   -6.0037536925E+00   -5.9925107040E+00   -5.9813097454E+00
-5.9701505814E+00   -5.9590329787E+00   -5.9479567053E+00   -5.9369215312E+00
-5.9259272282E+00   -5.9149735697E+00   -5.9040603305E+00   -5.8931872874E+00
-5.8823542188E+00   -5.8715609046E+00   -5.8608071263E+00   -5.8500926672E+00
-5.8394173119E+00   -5.8287808469E+00   -5.8181830599E+00   -5.8076237404E+00
-5.7971026793E+00   -5.7866196691E+00   -5.7761745037E+00   -5.7657669785E+00
-5.7553968905E+00   -5.7450640380E+00   -5.7347682209E+00   -5.7245092403E+00
-5.7142868989E+00   -5.7041010008E+00   -5.6939513515E+00   -5.6838377577E+00
-5.6737600278E+00   -5.6637179713E+00   -5.6537113991E+00   -5.6437401234E+00
-5.6338039579E+00   -5.6239027173E+00   -5.6140362180E+00   -5.6042042774E+00
-5.5944067141E+00   -5.5846433483E+00   -5.5749140012E+00   -5.5652184954E+00
-5.5555566544E+00   -5.5459283034E+00   -5.5363332685E+00   -5.5267713770E+00
-5.5172424576E+00   -5.5077463400E+00   -5.4982828551E+00   -5.4888518350E+00
-5.4794531129E+00   -5.4700865232E+00   -5.4607519014E+00   -5.4514490841E+00
-5.4421779090E+00   -5.4329382150E+00   -5.4237298419E+00   -5.4145526309E+00
-5.4054064240E+00   -5.3962910643E+00   -5.3872063961E+00   -5.3781522646E+00
-5.3691285161E+00   -5.3601349979E+00   -5.3511715583E+00   -5.3422380467E+00
</PP_LOCAL>
<PP_NONLOCAL>
<PP_BETA.1
type="real"
size="600"
columns="4"
index="1"
angular_momentum="0"
cutoff_radius_index=" 196"
cutoff_radius="    1.9500000000E+00" >
3.8107739186E-11    3.6667589645E-02    7.3327557263E-02    1.0997210960E-01
1.4659311232E-01    1.8318192298E-01    2.1972922806E-01    2.5622488553E-01
2.9265777418E-01    3.2901565095E-01    3.6528501746E-01    4.0145099695E-01
4.3749722251E-01    4.7340573781E-01    5.0915691098E-01    5.4472936266E-01
5.8009990875E-01    6.1524351855E-01    6.5013328877E-01    6.8474043374E-01
7.1903429215E-01    7.5298235043E-01    7.8655028283E-01    8.1970200806E-01
8.5239976238E-01    8.8460418874E-01    9.1627444161E-01    9.4736830686E-01
9.7784233620E-01    1.0076519952E+00    1.0367518246E+00    1.0650956125E+00
1.0926365793E+00    1.1193275701E+00    1.1451212581E+00    1.1699703537E+00
1.1938278202E+00    1.2166470948E+00    1.2383823124E+00    1.2589885314E+00
1.2784219607E+00    1.2966401851E+00    1.3136023890E+00    1.3292695760E+00
1.3436047841E+00    1.3565732937E+00    1.3681428280E+00    1.3782837455E+00
1.3869692203E+00    1.3941754129E+00    1.3998816274E+00    1.4040704558E+00
1.4067279077E+00    1.4078435246E+00    1.4074104791E+00    1.4054256569E+00
1.4018897216E+00    1.3968071631E+00    1.3901863267E+00    1.3820394260E+00
1.3723825366E+00    1.3612355721E+00    1.3486222429E+00    1.3345699964E+00
1.3191099415E+00    1.3022767546E+00    1.2841085716E+00    1.2646468621E+00
1.2439362911E+00    1.2220245653E+00    1.1989622674E+00    1.1748026775E+00
1.1496015848E+00    1.1234170881E+00    1.0963093889E+00    1.0683405760E+00
1.0395744043E+00    1.0100760686E+00    9.7991197315E-01    9.4914949909E-01
9.1785677012E-01    8.8610241833E-01    8.5395535095E-01    8.2148451937E-01
7.8875869154E-01    7.5584622874E-01    7.2281486792E-01    6.8973151042E-01
6.5666201812E-01    6.2367101770E-01    5.9082171402E-01    5.5817571306E-01
5.2579285521E-01    4.9373105938E-01    4.6204617844E-01    4.3079186629E-01
4.0001945690E-01    3.6977785551E-01    3.4011344219E-01    3.1106998764E-01
2.8268858143E-01    2.5500757239E-01    2.2806252113E-01    2.0188616430E-01
1.7650839047E-01    1.5195622721E-01    1.2825383886E-01    1.0542253480E-01
8.3480787511E-02    6.2444260017E-02    4.2325842176E-02    2.3135695241E-02
4.8813041227E-03   -1.2432463222E-02   -2.8803289858E-02   -4.4231337976E-02
-5.8719171600E-02   -7.2271674462E-02   -8.4895963574E-02   -9.6601299023E-02
-1.0739899048E-01   -1.1730230088E-01   -1.2632634771E-01   -1.3448800233E-01
-1.4180578760E-01   -1.4829977427E-01   -1.5399147635E-01   -1.5890374569E-01
-1.6306066602E-01   -1.6648744672E-01   -1.6921031625E-01   -1.7125641566E-01
-1.7265369193E-01   -1.7343079154E-01   -1.7361695407E-01   -1.7324190596E-01
-1.7233575446E-01   -1.7092888165E-01   -1.6905183865E-01   -1.6673524003E-01
-1.6400965817E-01   -1.6090551791E-01   -1.5745299121E-01   -1.5368189205E-01
-1.4962157139E-01   -1.4530081254E-01   -1.4074772576E-01   -1.3598964660E-01
-1.3105302958E-01   -1.2596337847E-01   -1.2074502869E-01   -1.1542117424E-01
-1.1001414808E-01   -1.0454564882E-01   -9.9037081548E-02   -9.3509523424E-02
-8.7983637710E-02   -8.2479699985E-02   -7.7017558618E-02   -7.1616615604E-02
-6.6295798555E-02   -6.1073532090E-02   -5.5967707558E-02   -5.0995651361E-02
-4.6174091992E-02   -4.1519126039E-02   -3.7046183317E-02   -3.2769991373E-02
-2.8704539572E-02   -2.4863043040E-02   -2.1257906689E-02   -1.7900689605E-02
-1.4802070093E-02   -1.1971811590E-02   -9.4187298045E-03   -7.1506612607E-03
-5.1749507370E-03   -3.4966218966E-03   -2.1181530238E-03   -1.0458756193E-03
-2.8778816313E-04    1.5944958062E-04    3.0514902019E-04    1.9533343753E-04
1.8855473090E-05   -4.3667458960E-05   -1.6698295875E-05    8.1590797177E-06
6.2623421609E-06   -5.3895281736E-07   -7.6849203540E-07    0.0000000000E+00
0.0000000000E+00    0.0000000000E+00    0.0000000000E+00    0.0000000000E+00
0. 0. 0. 0.
0. 0. 0. 0.
0. 0. 0. 0.
0. 0. 0. 0.
0. 0. 0. 0.
0. 0. 0. 0.
0. 0. 0. 0.
0. 0. 0. 0.
0. 0. 0. 0.
0. 0. 0. 0.
0. 0. 0. 0.
0. 0. 0. 0.
0. 0. 0. 0.
0. 0. 0. 0.
0. 0. 0. 0.
0. 0. 0. 0.
0. 0. 0. 0.
0. 0. 0. 0.
0. 0. 0. 0.
0. 0. 0. 0.
0. 0. 0. 0.
0. 0. 0. 0.
0. 0. 0. 0.
0. 0. 0. 0.
0. 0. 0. 0.
0. 0. 0. 0.
0. 0. 0. 0.
0. 0. 0. 0.
0. 0. 0. 0.
0. 0. 0. 0.