<UPF version="2.0.1">
<PP_INFO>
NOTE!!!!
This file is trimmed with a mesh size of 600 from the original version.
Trimming performed at 2023-03-31 09:10:04.946957 by trim_upf.py version 0.1.0

This pseudopotential file has been produced using the code
ONCVPSP  (Optimized Norm-Conservinng Vanderbilt PSeudopotential)
scalar-relativistic version 3.3.0 08/16/2017 by D. R. Hamann
The code is available through a link at URL www.mat-simresearch.com.
Documentation with the package provides a full discription of the
input data below.
While it is not required under the terms of the GNU GPL, it is
suggested that you cite D. R. Hamann, Phys. Rev. B 88, 085117 (2013)
in any publication using these pseudopotentials.
<PP_INPUTFILE>
# ATOM AND REFERENCE CONFIGURATION
# atsym  z   nc   nv     iexc    psfile
Si 14.00    3    2       4      upf
#
#   n    l    f        energy (Ha)
1    0    2.00
2    0    2.00
2    1    6.00
3    0    2.00
3    1    2.00
#
# PSEUDOPOTENTIAL AND OPTIMIZATION
# lmax
2
#
#   l,   rc,      ep,       ncon, nbas, qcut
0   1.60000  -0.39736    4    9   6.40000
1   1.71000  -0.14998    4    9   6.40000
2   1.90000   0.05000    4    9   6.40000
#
# LOCAL POTENTIAL
# lloc, lpopt,  rc(5),   dvloc0
4    5   1.60000      0.00000
#
# VANDERBILT-KLEINMAN-BYLANDER PROJECTORs
# l, nproj, debl
0    2   2.50000
1    2   2.50000
2    2   1.50000
#
# MODEL CORE CHARGE
# icmod, fcfact, rcfact
3   4.00000   1.30000
#
# LOG DERIVATIVE ANALYSIS
# epsh1, epsh2, depsh
-12.00   12.00    0.02
#
# OUTPUT GRID
# rlmax, drl
6.00    0.01
#
# TEST CONFIGURATIONS
# ncnf
0
# nvcnf
#   n    l    f
</PP_INPUTFILE>
</PP_INFO>
<!--                               -->
<!-- END OF HUMAN READABLE SECTION -->
<!--                               -->
<PP_HEADER
generated="Generated using ONCVPSP code by D. R. Hamann"
author="anonymous"
date="171031"
comment=""
element="Si"
pseudo_type="NC"
relativistic="scalar"
is_ultrasoft="F"
is_paw="F"
is_coulomb="F"
has_so="F"
has_wfc="F"
has_gipaw="F"
core_correction="T"
functional="PBE"
z_valence="    4.00"
total_psenergy="  -7.52024617228E+00"
rho_cutoff="   1.50900000000E+01"
l_max="2"
l_local="-1"
mesh_size="   600"
number_of_wfc="2"
number_of_proj="6"/>
<PP_MESH>
<PP_R type="real"  size="600" columns="8">
0.0000    0.0100    0.0200    0.0300    0.0400    0.0500    0.0600    0.0700
0.0800    0.0900    0.1000    0.1100    0.1200    0.1300    0.1400    0.1500
0.1600    0.1700    0.1800    0.1900    0.2000    0.2100    0.2200    0.2300
0.2400    0.2500    0.2600    0.2700    0.2800    0.2900    0.3000    0.3100
0.3200    0.3300    0.3400    0.3500    0.3600    0.3700    0.3800    0.3900
0.4000    0.4100    0.4200    0.4300    0.4400    0.4500    0.4600    0.4700
0.4800    0.4900    0.5000    0.5100    0.5200    0.5300    0.5400    0.5500
0.5600    0.5700    0.5800    0.5900    0.6000    0.6100    0.6200    0.6300
0.6400    0.6500    0.6600    0.6700    0.6800    0.6900    0.7000    0.7100
0.7200    0.7300    0.7400    0.7500    0.7600    0.7700    0.7800    0.7900
0.8000    0.8100    0.8200    0.8300    0.8400    0.8500    0.8600    0.8700
0.8800    0.8900    0.9000    0.9100    0.9200    0.9300    0.9400    0.9500
0.9600    0.9700    0.9800    0.9900    1.0000    1.0100    1.0200    1.0300
1.0400    1.0500    1.0600    1.0700    1.0800    1.0900    1.1000    1.1100
1.1200    1.1300    1.1400    1.1500    1.1600    1.1700    1.1800    1.1900
1.2000    1.2100    1.2200    1.2300    1.2400    1.2500    1.2600    1.2700
1.2800    1.2900    1.3000    1.3100    1.3200    1.3300    1.3400    1.3500
1.3600    1.3700    1.3800    1.3900    1.4000    1.4100    1.4200    1.4300
1.4400    1.4500    1.4600    1.4700    1.4800    1.4900    1.5000    1.5100
1.5200    1.5300    1.5400    1.5500    1.5600    1.5700    1.5800    1.5900
1.6000    1.6100    1.6200    1.6300    1.6400    1.6500    1.6600    1.6700
1.6800    1.6900    1.7000    1.7100    1.7200    1.7300    1.7400    1.7500
1.7600    1.7700    1.7800    1.7900    1.8000    1.8100    1.8200    1.8300
1.8400    1.8500    1.8600    1.8700    1.8800    1.8900    1.9000    1.9100
1.9200    1.9300    1.9400    1.9500    1.9600    1.9700    1.9800    1.9900
2.0000    2.0100    2.0200    2.0300    2.0400    2.0500    2.0600    2.0700
2.0800    2.0900    2.1000    2.1100    2.1200    2.1300    2.1400    2.1500
2.1600    2.1700    2.1800    2.1900    2.2000    2.2100    2.2200    2.2300
2.2400    2.2500    2.2600    2.2700    2.2800    2.2900    2.3000    2.3100
2.3200    2.3300    2.3400    2.3500    2.3600    2.3700    2.3800    2.3900
2.4000    2.4100    2.4200    2.4300    2.4400    2.4500    2.4600    2.4700
2.4800    2.4900    2.5000    2.5100    2.5200    2.5300    2.5400    2.5500
2.5600    2.5700    2.5800    2.5900    2.6000    2.6100    2.6200    2.6300
2.6400    2.6500    2.6600    2.6700    2.6800    2.6900    2.7000    2.7100
2.7200    2.7300    2.7400    2.7500    2.7600    2.7700    2.7800    2.7900
2.8000    2.8100    2.8200    2.8300    2.8400    2.8500    2.8600    2.8700
2.8800    2.8900    2.9000    2.9100    2.9200    2.9300    2.9400    2.9500
2.9600    2.9700    2.9800    2.9900    3.0000    3.0100    3.0200    3.0300
3.0400    3.0500    3.0600    3.0700    3.0800    3.0900    3.1000    3.1100
3.1200    3.1300    3.1400    3.1500    3.1600    3.1700    3.1800    3.1900
3.2000    3.2100    3.2200    3.2300    3.2400    3.2500    3.2600    3.2700
3.2800    3.2900    3.3000    3.3100    3.3200    3.3300    3.3400    3.3500
3.3600    3.3700    3.3800    3.3900    3.4000    3.4100    3.4200    3.4300
3.4400    3.4500    3.4600    3.4700    3.4800    3.4900    3.5000    3.5100
3.5200    3.5300    3.5400    3.5500    3.5600    3.5700    3.5800    3.5900
3.6000    3.6100    3.6200    3.6300    3.6400    3.6500    3.6600    3.6700
3.6800    3.6900    3.7000    3.7100    3.7200    3.7300    3.7400    3.7500
3.7600    3.7700    3.7800    3.7900    3.8000    3.8100    3.8200    3.8300
3.8400    3.8500    3.8600    3.8700    3.8800    3.8900    3.9000    3.9100
3.9200    3.9300    3.9400    3.9500    3.9600    3.9700    3.9800    3.9900
4.0000    4.0100    4.0200    4.0300    4.0400    4.0500    4.0600    4.0700
4.0800    4.0900    4.1000    4.1100    4.1200    4.1300    4.1400    4.1500
4.1600    4.1700    4.1800    4.1900    4.2000    4.2100    4.2200    4.2300
4.2400    4.2500    4.2600    4.2700    4.2800    4.2900    4.3000    4.3100
4.3200    4.3300    4.3400    4.3500    4.3600    4.3700    4.3800    4.3900
4.4000    4.4100    4.4200    4.4300    4.4400    4.4500    4.4600    4.4700
4.4800    4.4900    4.5000    4.5100    4.5200    4.5300    4.5400    4.5500
4.5600    4.5700    4.5800    4.5900    4.6000    4.6100    4.6200    4.6300
4.6400    4.6500    4.6600    4.6700    4.6800    4.6900    4.7000    4.7100
4.7200    4.7300    4.7400    4.7500    4.7600    4.7700    4.7800    4.7900
4.8000    4.8100    4.8200    4.8300    4.8400    4.8500    4.8600    4.8700
4.8800    4.8900    4.9000    4.9100    4.9200    4.9300    4.9400    4.9500
4.9600    4.9700    4.9800    4.9900    5.0000    5.0100    5.0200    5.0300
5.0400    5.0500    5.0600    5.0700    5.0800    5.0900    5.1000    5.1100
5.1200    5.1300    5.1400    5.1500    5.1600    5.1700    5.1800    5.1900
5.2000    5.2100    5.2200    5.2300    5.2400    5.2500    5.2600    5.2700
5.2800    5.2900    5.3000    5.3100    5.3200    5.3300    5.3400    5.3500
5.3600    5.3700    5.3800    5.3900    5.4000    5.4100    5.4200    5.4300
5.4400    5.4500    5.4600    5.4700    5.4800    5.4900    5.5000    5.5100
5.5200    5.5300    5.5400    5.5500    5.5600    5.5700    5.5800    5.5900
5.6000    5.6100    5.6200    5.6300    5.6400    5.6500    5.6600    5.6700
5.6800    5.6900    5.7000    5.7100    5.7200    5.7300    5.7400    5.7500
5.7600    5.7700    5.7800    5.7900    5.8000    5.8100    5.8200    5.8300
5.8400    5.8500    5.8600    5.8700    5.8800    5.8900    5.9000    5.9100
5.9200    5.9300    5.9400    5.9500    5.9600    5.9700    5.9800    5.9900
</PP_R>
<PP_RAB type="real"  size="600" columns="8">
0.0100    0.0100    0.0100    0.0100    0.0100    0.0100    0.0100    0.0100
0.0100    0.0100    0.0100    0.0100    0.0100    0.0100    0.0100    0.0100
0.0100    0.0100    0.0100    0.0100    0.0100    0.0100    0.0100    0.0100
0.0100    0.0100    0.0100    0.0100    0.0100    0.0100    0.0100    0.0100
0.0100    0.0100    0.0100    0.0100    0.0100    0.0100    0.0100    0.0100
0.0100    0.0100    0.0100    0.0100    0.0100    0.0100    0.0100    0.0100
0.0100    0.0100    0.0100    0.0100    0.0100    0.0100    0.0100    0.0100
0.0100    0.0100    0.0100    0.0100    0.0100    0.0100    0.0100    0.0100
0.0100    0.0100    0.0100    0.0100    0.0100    0.0100    0.0100    0.0100
0.0100    0.0100    0.0100    0.0100    0.0100    0.0100    0.0100    0.0100
0.0100    0.0100    0.0100    0.0100    0.0100    0.0100    0.0100    0.0100
0.0100    0.0100    0.0100    0.0100    0.0100    0.0100    0.0100    0.0100
0.0100    0.0100    0.0100    0.0100    0.0100    0.0100    0.0100    0.0100
0.0100    0.0100    0.0100    0.0100    0.0100    0.0100    0.0100    0.0100
0.0100    0.0100    0.0100    0.0100    0.0100    0.0100    0.0100    0.0100
0.0100    0.0100    0.0100    0.0100    0.0100    0.0100    0.0100    0.0100
0.0100    0.0100    0.0100    0.0100    0.0100    0.0100    0.0100    0.0100
0.0100    0.0100    0.0100    0.0100    0.0100    0.0100    0.0100    0.0100
0.0100    0.0100    0.0100    0.0100    0.0100    0.0100    0.0100    0.0100
0.0100    0.0100    0.0100    0.0100    0.0100    0.0100    0.0100    0.0100
0.0100    0.0100    0.0100    0.0100    0.0100    0.0100    0.0100    0.0100
0.0100    0.0100    0.0100    0.0100    0.0100    0.0100    0.0100    0.0100
0.0100    0.0100    0.0100    0.0100    0.0100    0.0100    0.0100    0.0100
0.0100    0.0100    0.0100    0.0100    0.0100    0.0100    0.0100    0.0100
0.0100    0.0100    0.0100    0.0100    0.0100    0.0100    0.0100    0.0100
0.0100    0.0100    0.0100    0.0100    0.0100    0.0100    0.0100    0.0100
0.0100    0.0100    0.0100    0.0100    0.0100    0.0100    0.0100    0.0100
0.0100    0.0100    0.0100    0.0100    0.0100    0.0100    0.0100    0.0100
0.0100    0.0100    0.0100    0.0100    0.0100    0.0100    0.0100    0.0100
0.0100    0.0100    0.0100    0.0100    0.0100    0.0100    0.0100    0.0100
0.0100    0.0100    0.0100    0.0100    0.0100    0.0100    0.0100    0.0100
0.0100    0.0100    0.0100    0.0100    0.0100    0.0100    0.0100    0.0100
0.0100    0.0100    0.0100    0.0100    0.0100    0.0100    0.0100    0.0100
0.0100    0.0100    0.0100    0.0100    0.0100    0.0100    0.0100    0.0100
0.0100    0.0100    0.0100    0.0100    0.0100    0.0100    0.0100    0.0100
0.0100    0.0100    0.0100    0.0100    0.0100    0.0100    0.0100    0.0100
0.0100    0.0100    0.0100    0.0100    0.0100    0.0100    0.0100    0.0100
0.0100    0.0100    0.0100    0.0100    0.0100    0.0100    0.0100    0.0100
0.0100    0.0100    0.0100    0.0100    0.0100    0.0100    0.0100    0.0100
0.0100    0.0100    0.0100    0.0100    0.0100    0.0100    0.0100    0.0100
0.0100    0.0100    0.0100    0.0100    0.0100    0.0100    0.0100    0.0100
0.0100    0.0100    0.0100    0.0100    0.0100    0.0100    0.0100    0.0100
0.0100    0.0100    0.0100    0.0100    0.0100    0.0100    0.0100    0.0100
0.0100    0.0100    0.0100    0.0100    0.0100    0.0100    0.0100    0.0100
0.0100    0.0100    0.0100    0.0100    0.0100    0.0100    0.0100    0.0100
0.0100    0.0100    0.0100    0.0100    0.0100    0.0100    0.0100    0.0100
0.0100    0.0100    0.0100    0.0100    0.0100    0.0100    0.0100    0.0100
0.0100    0.0100    0.0100    0.0100    0.0100    0.0100    0.0100    0.0100
0.0100    0.0100    0.0100    0.0100    0.0100    0.0100    0.0100    0.0100
0.0100    0.0100    0.0100    0.0100    0.0100    0.0100    0.0100    0.0100
0.0100    0.0100    0.0100    0.0100    0.0100    0.0100    0.0100    0.0100
0.0100    0.0100    0.0100    0.0100    0.0100    0.0100    0.0100    0.0100
0.0100    0.0100    0.0100    0.0100    0.0100    0.0100    0.0100    0.0100
0.0100    0.0100    0.0100    0.0100    0.0100    0.0100    0.0100    0.0100
0.0100    0.0100    0.0100    0.0100    0.0100    0.0100    0.0100    0.0100
0.0100    0.0100    0.0100    0.0100    0.0100    0.0100    0.0100    0.0100
0.0100    0.0100    0.0100    0.0100    0.0100    0.0100    0.0100    0.0100
0.0100    0.0100    0.0100    0.0100    0.0100    0.0100    0.0100    0.0100
0.0100    0.0100    0.0100    0.0100    0.0100    0.0100    0.0100    0.0100
0.0100    0.0100    0.0100    0.0100    0.0100    0.0100    0.0100    0.0100
0.0100    0.0100    0.0100    0.0100    0.0100    0.0100    0.0100    0.0100
0.0100    0.0100    0.0100    0.0100    0.0100    0.0100    0.0100    0.0100
0.0100    0.0100    0.0100    0.0100    0.0100    0.0100    0.0100    0.0100
0.0100    0.0100    0.0100    0.0100    0.0100    0.0100    0.0100    0.0100
0.0100    0.0100    0.0100    0.0100    0.0100    0.0100    0.0100    0.0100
0.0100    0.0100    0.0100    0.0100    0.0100    0.0100    0.0100    0.0100
0.0100    0.0100    0.0100    0.0100    0.0100    0.0100    0.0100    0.0100
0.0100    0.0100    0.0100    0.0100    0.0100    0.0100    0.0100    0.0100
0.0100    0.0100    0.0100    0.0100    0.0100    0.0100    0.0100    0.0100
0.0100    0.0100    0.0100    0.0100    0.0100    0.0100    0.0100    0.0100
0.0100    0.0100    0.0100    0.0100    0.0100    0.0100    0.0100    0.0100
0.0100    0.0100    0.0100    0.0100    0.0100    0.0100    0.0100    0.0100
0.0100    0.0100    0.0100    0.0100    0.0100    0.0100    0.0100    0.0100
0.0100    0.0100    0.0100    0.0100    0.0100    0.0100    0.0100    0.0100
0.0100    0.0100    0.0100    0.0100    0.0100    0.0100    0.0100    0.0100
</PP_RAB>
</PP_MESH>
<PP_LOCAL type="real"  size="600" columns="4">
-9.5328633012E+00   -9.5325614831E+00   -9.5316561861E+00   -9.5301478921E+00
-9.5280374024E+00   -9.5253258370E+00   -9.5220146329E+00   -9.5181055413E+00
-9.5136006247E+00   -9.5085022526E+00   -9.5028130962E+00   -9.4965361223E+00
-9.4896745858E+00   -9.4822320211E+00   -9.4742122315E+00   -9.4656192779E+00
-9.4564574659E+00   -9.4467313315E+00   -9.4364456248E+00   -9.4256052939E+00
-9.4142154664E+00   -9.4022814306E+00   -9.3898086162E+00   -9.3768025740E+00
-9.3632689563E+00   -9.3492134966E+00   -9.3346419904E+00   -9.3195602762E+00
-9.3039742181E+00   -9.2878896894E+00   -9.2713125575E+00   -9.2542486709E+00
-9.2367038484E+00   -9.2186838692E+00   -9.2001944663E+00   -9.1812413214E+00
-9.1618300622E+00   -9.1419662608E+00   -9.1216554353E+00   -9.1009030516E+00
-9.0797145280E+00   -9.0580952397E+00   -9.0360505246E+00   -9.0135856902E+00
-8.9907060196E+00   -8.9674167785E+00   -8.9437232206E+00   -8.9196305935E+00
-8.8951441425E+00   -8.8702691135E+00   -8.8450107549E+00   -8.8193743172E+00
-8.7933650508E+00   -8.7669882027E+00   -8.7402490108E+00   -8.7131526962E+00
-8.6857044547E+00   -8.6579094461E+00   -8.6297727824E+00   -8.6012995154E+00
-8.5724946231E+00   -8.5433629964E+00   -8.5139094251E+00   -8.4841385857E+00
-8.4540550289E+00   -8.4236631696E+00   -8.3929672775E+00   -8.3619714716E+00
-8.3306797162E+00   -8.2990958201E+00   -8.2672234395E+00   -8.2350660845E+00
-8.2026271289E+00   -8.1699098244E+00   -8.1369173185E+00   -8.1036526761E+00
-8.0701189055E+00   -8.0363189867E+00   -8.0022559037E+00   -7.9679326795E+00
-7.9333524131E+00   -7.8985183174E+00   -7.8634337596E+00   -7.8281023006E+00
-7.7925277339E+00   -7.7567141244E+00   -7.7206658434E+00   -7.6843876026E+00
-7.6478844827E+00   -7.6111619597E+00   -7.5742259245E+00   -7.5370826986E+00
-7.4997390433E+00   -7.4622021630E+00   -7.4244797027E+00   -7.3865797389E+00
-7.3485107646E+00   -7.3102816688E+00   -7.2719017100E+00   -7.2333804858E+00
-7.1947278973E+00   -7.1559541104E+00   -7.1170695142E+00   -7.0780846775E+00
-7.0390103040E+00   -6.9998571867E+00   -6.9606361636E+00   -6.9213580736E+00
-6.8820337150E+00   -6.8426738062E+00   -6.8032889493E+00   -6.7638895978E+00
-6.7244860278E+00   -6.6850883139E+00   -6.6457063096E+00   -6.6063496320E+00
-6.5670276519E+00   -6.5277494879E+00   -6.4885240060E+00   -6.4493598223E+00
-6.4102653110E+00   -6.3712486152E+00   -6.3323176613E+00   -6.2934801765E+00
-6.2547437079E+00   -6.2161156438E+00   -6.1776032359E+00   -6.1392136226E+00
-6.1009538513E+00   -6.0628309015E+00   -6.0248517063E+00   -5.9870231725E+00
-5.9493522001E+00   -5.9118456988E+00   -5.8745106031E+00   -5.8373538860E+00
-5.8003825692E+00   -5.7636037329E+00   -5.7270245229E+00   -5.6906521558E+00
-5.6544939233E+00   -5.6185571941E+00   -5.5828494150E+00   -5.5473781105E+00
-5.5121508801E+00   -5.4771753945E+00   -5.4424593899E+00   -5.4080106594E+00
-5.3738370420E+00   -5.3399464079E+00   -5.3063466407E+00   -5.2730456145E+00
-5.2400511631E+00   -5.2073710737E+00   -5.1750130055E+00   -5.1429843456E+00
-5.1112925142E+00   -5.0799446135E+00   -5.0489480705E+00   -5.0183088754E+00
-4.9880263548E+00   -4.9580929188E+00   -4.9284917406E+00   -4.8992034821E+00
-4.8702215747E+00   -4.8415480365E+00   -4.8131873406E+00   -4.7851444200E+00
-4.7574171084E+00   -4.7300001368E+00   -4.7028929265E+00   -4.6760943498E+00
-4.6495978885E+00   -4.6233935644E+00   -4.5974666575E+00   -4.5718017926E+00
-4.5463904527E+00   -4.5212290503E+00   -4.4963160142E+00   -4.4716506318E+00
-4.4472297910E+00   -4.4230476750E+00   -4.3990994829E+00   -4.3753826250E+00
-4.3518944743E+00   -4.3286316631E+00   -4.3055909723E+00   -4.2827695205E+00
-4.2601645063E+00   -4.2377732073E+00   -4.2155929962E+00   -4.1936213408E+00
-4.1718557978E+00   -4.1502940060E+00   -4.1289336813E+00   -4.1077726121E+00
-4.0868086540E+00   -4.0660397249E+00   -4.0454638002E+00   -4.0250789082E+00
-4.0048831253E+00   -3.9848745722E+00   -3.9650514096E+00   -3.9454118338E+00
-3.9259540739E+00   -3.9066763873E+00   -3.8875770573E+00   -3.8686543895E+00
-3.8499067087E+00   -3.8313323570E+00   -3.8129296904E+00   -3.7946970773E+00
-3.7766328958E+00   -3.7587355321E+00   -3.7410033785E+00   -3.7234348324E+00
-3.7060282941E+00   -3.6887821662E+00   -3.6716948523E+00   -3.6547647558E+00
-3.6379902799E+00   -3.6213698259E+00   -3.6049017936E+00   -3.5885845804E+00
-3.5724165813E+00   -3.5563961886E+00   -3.5405217920E+00   -3.5247917785E+00
-3.5092045329E+00   -3.4937584376E+00   -3.4784518733E+00   -3.4632832194E+00
-3.4482508543E+00   -3.4333531562E+00   -3.4185885037E+00   -3.4039552763E+00
-3.3894518554E+00   -3.3750766250E+00   -3.3608279723E+00   -3.3467042889E+00
-3.3327039718E+00   -3.3188254236E+00   -3.3050670544E+00   -3.2914272818E+00
-3.2779045326E+00   -3.2644972434E+00   -3.2512038615E+00   -3.2380228462E+00
-3.2249526690E+00   -3.2119918155E+00   -3.1991387856E+00   -3.1863920944E+00
-3.1737502735E+00   -3.1612118711E+00   -3.1487754537E+00   -3.1364396058E+00
-3.1242029316E+00   -3.1120640549E+00   -3.1000216201E+00   -3.0880742925E+00
-3.0762207593E+00   -3.0644597296E+00   -3.0527899348E+00   -3.0412101295E+00
-3.0297190911E+00   -3.0183156208E+00   -3.0069985431E+00   -2.9957667066E+00
-2.9846189836E+00   -2.9735542704E+00   -2.9625714873E+00   -2.9516695786E+00
-2.9408475124E+00   -2.9301042804E+00   -2.9194388980E+00   -2.9088504037E+00
-2.8983378592E+00   -2.8879003486E+00   -2.8775369785E+00   -2.8672468775E+00
-2.8570291956E+00   -2.8468831039E+00   -2.8368077943E+00   -2.8268024784E+00
-2.8168663875E+00   -2.8069987718E+00   -2.7971989000E+00   -2.7874660583E+00
-2.7777995504E+00   -2.7681986963E+00   -2.7586628318E+00   -2.7491913083E+00
-2.7397834914E+00   -2.7304387610E+00   -2.7211565099E+00   -2.7119361440E+00
-2.7027770808E+00   -2.6936787494E+00   -2.6846405896E+00   -2.6756620514E+00
-2.6667425941E+00   -2.6578816862E+00   -2.6490788045E+00   -2.6403334336E+00
-2.6316450654E+00   -2.6230131987E+00   -2.6144373387E+00   -2.6059169962E+00
-2.5974516877E+00   -2.5890409346E+00   -2.5806842630E+00   -2.5723812035E+00
-2.5641312903E+00   -2.5559340616E+00   -2.5477890590E+00   -2.5396958273E+00
-2.5316539143E+00   -2.5236628705E+00   -2.5157222493E+00   -2.5078316063E+00
-2.4999904998E+00   -2.4921984904E+00   -2.4844551411E+00   -2.4767600169E+00
-2.4691126852E+00   -2.4615127159E+00   -2.4539596810E+00   -2.4464531547E+00
-2.4389927140E+00   -2.4315779381E+00   -2.4242084089E+00   -2.4168837110E+00
-2.4096034318E+00   -2.4023671615E+00   -2.3951744936E+00   -2.3880250246E+00
-2.3809183541E+00   -2.3738540857E+00   -2.3668318259E+00   -2.3598511855E+00
-2.3529117787E+00   -2.3460132239E+00   -2.3391551436E+00   -2.3323371642E+00
-2.3255589168E+00   -2.3188200365E+00   -2.3121201633E+00   -2.3054589414E+00
-2.2988360200E+00   -2.2922510525E+00   -2.2857036975E+00   -2.2791936183E+00
-2.2727204827E+00   -2.2662839637E+00   -2.2598837389E+00   -2.2535194907E+00
-2.2471909063E+00   -2.2408976777E+00   -2.2346395016E+00   -2.2284160793E+00
-2.2222271166E+00   -2.2160723241E+00   -2.2099514163E+00   -2.2038641126E+00
-2.1978101363E+00   -2.1917892149E+00   -2.1858010798E+00   -2.1798454665E+00
-2.1739221141E+00   -2.1680307655E+00   -2.1621711670E+00   -2.1563430684E+00
-2.1505462226E+00   -2.1447803858E+00   -2.1390453172E+00   -2.1333407787E+00
-2.1276665352E+00   -2.1220223540E+00   -2.1164080052E+00   -2.1108232610E+00
-2.1052678960E+00   -2.0997416871E+00   -2.0942444131E+00   -2.0887758549E+00
-2.0833357953E+00   -2.0779240188E+00   -2.0725403119E+00   -2.0671844624E+00
-2.0618562602E+00   -2.0565554963E+00   -2.0512819635E+00   -2.0460354559E+00
-2.0408157694E+00   -2.0356227008E+00   -2.0304560488E+00   -2.0253156131E+00
-2.0202011950E+00   -2.0151125972E+00   -2.0100496236E+00   -2.0050120797E+00
-1.9999997723E+00   -1.9950125097E+00   -1.9900501015E+00   -1.9851123590E+00
-1.9801990947E+00   -1.9753101230E+00   -1.9704452594E+00   -1.9656043214E+00
-1.9607871279E+00   -1.9559934996E+00   -1.9512232587E+00   -1.9464762292E+00
-1.9417522370E+00   -1.9370511094E+00   -1.9323726759E+00   -1.9277167676E+00
-1.9230832175E+00   -1.9184718605E+00   -1.9138825332E+00   -1.9093150744E+00
-1.9047693246E+00   -1.9002451261E+00   -1.8957423234E+00   -1.8912607626E+00
-1.8868002918E+00   -1.8823607612E+00   -1.8779420225E+00   -1.8735439295E+00
-1.8691663377E+00   -1.8648091045E+00   -1.8604720889E+00   -1.8561551518E+00
-1.8518581558E+00   -1.8475809650E+00   -1.8433234453E+00   -1.8390854641E+00
-1.8348668902E+00   -1.8306675942E+00   -1.8264874479E+00   -1.8223263243E+00
-1.8181840979E+00   -1.8140606445E+00   -1.8099558404E+00   -1.8058695604E+00
-1.8018016898E+00   -1.7977521104E+00   -1.7937207042E+00   -1.7897073535E+00
-1.7857119626E+00   -1.7817343900E+00   -1.7777745068E+00   -1.7738321916E+00
-1.7699073269E+00   -1.7659997747E+00   -1.7621094342E+00   -1.7582362524E+00
-1.7543801505E+00   -1.7505410498E+00   -1.7467188706E+00   -1.7429135594E+00
-1.7391249742E+00   -1.7353529992E+00   -1.7315975095E+00   -1.7278583712E+00
-1.7241354726E+00   -1.7204286542E+00   -1.7167377272E+00   -1.7130625291E+00
-1.7094029041E+00   -1.7057587081E+00   -1.7021296841E+00   -1.6985158804E+00
-1.6949172395E+00   -1.6913337123E+00   -1.6877652552E+00   -1.6842118669E+00
-1.6806735222E+00   -1.6771500575E+00   -1.6736413773E+00   -1.6701473801E+00
-1.6666679604E+00   -1.6632029775E+00   -1.6597523501E+00   -1.6563160051E+00
-1.6528938541E+00   -1.6494858103E+00   -1.6460917887E+00   -1.6427117143E+00
-1.6393454940E+00   -1.6359930418E+00   -1.6326542734E+00   -1.6293291052E+00
-1.6260174541E+00   -1.6227192374E+00   -1.6194343738E+00   -1.6161627826E+00
-1.6129043833E+00   -1.6096590964E+00   -1.6064268429E+00   -1.6032075443E+00
-1.6000011231E+00   -1.5968075020E+00   -1.5936266046E+00   -1.5904583549E+00
-1.5873026778E+00   -1.5841594985E+00   -1.5810287428E+00   -1.5779103374E+00
-1.5748042092E+00   -1.5717102859E+00   -1.5686284957E+00   -1.5655587674E+00
-1.5625010303E+00   -1.5594552142E+00   -1.5564212496E+00   -1.5533990675E+00
-1.5503885993E+00   -1.5473897771E+00   -1.5444025334E+00   -1.5414268013E+00
-1.5384625143E+00   -1.5355096067E+00   -1.5325680129E+00   -1.5296376680E+00
-1.5267185078E+00   -1.5238104682E+00   -1.5209134859E+00   -1.5180274978E+00
-1.5151524415E+00   -1.5122882551E+00   -1.5094348769E+00   -1.5065922460E+00
-1.5037603017E+00   -1.5009389839E+00   -1.4981282329E+00   -1.4953279893E+00
-1.4925381945E+00   -1.4897587900E+00   -1.4869897179E+00   -1.4842309207E+00
-1.4814823412E+00   -1.4787439229E+00   -1.4760156096E+00   -1.4732973452E+00
-1.4705890746E+00   -1.4678907425E+00   -1.4652022945E+00   -1.4625236763E+00
-1.4598548341E+00   -1.4571957145E+00   -1.4545462644E+00   -1.4519064313E+00
-1.4492761628E+00   -1.4466554070E+00   -1.4440441125E+00   -1.4414422280E+00
-1.4388497029E+00   -1.4362664866E+00   -1.4336925293E+00   -1.4311277811E+00
-1.4285721927E+00   -1.4260257152E+00   -1.4234882999E+00   -1.4209598985E+00
-1.4184404631E+00   -1.4159299461E+00   -1.4134283002E+00   -1.4109354784E+00
-1.4084514342E+00   -1.4059761213E+00   -1.4035094936E+00   -1.4010515057E+00
-1.3986021122E+00   -1.3961612680E+00   -1.3937289285E+00   -1.3913050494E+00
-1.3888895865E+00   -1.3864824961E+00   -1.3840837347E+00   -1.3816932593E+00
-1.3793110268E+00   -1.3769369949E+00   -1.3745711211E+00   -1.3722133635E+00
-1.3698636805E+00   -1.3675220306E+00   -1.3651883726E+00   -1.3628626658E+00
-1.3605448696E+00   -1.3582349436E+00   -1.3559328480E+00   -1.3536385428E+00
-1.3513519887E+00   -1.3490731464E+00   -1.3468019769E+00   -1.3445384417E+00
-1.3422825022E+00   -1.3400341203E+00   -1.3377932581E+00   -1.3355598779E+00
</PP_LOCAL>
<PP_NONLOCAL>
<PP_BETA.1
type="real"
size="600"
columns="4"
index="1"
angular_momentum="0"
cutoff_radius_index=" 196"
cutoff_radius="    1.9500000000E+00" >
-5.6328824383E-09    3.1595742775E-02    6.2932621168E-02    9.3756650478E-02
1.2382351921E-01    1.5290321177E-01    1.8078437851E-01    2.0727837574E-01
2.3222290377E-01    2.5548517816E-01    2.7696457699E-01    2.9659471630E-01
3.1434491536E-01    3.3022102393E-01    3.4426559482E-01    3.5655739594E-01
3.6721026777E-01    3.7637134322E-01    3.8421865800E-01    3.9095819019E-01
3.9682037748E-01    4.0205617008E-01    4.0693268502E-01    4.1172853499E-01
4.1672891061E-01    4.2222049967E-01    4.2848632990E-01    4.3580062364E-01
4.4442375299E-01    4.5459738264E-01    4.6653988501E-01    4.8044210778E-01
4.9646356875E-01    5.1472914568E-01    5.3532632105E-01    5.5830303241E-01
5.8366616902E-01    6.1138074491E-01    6.4136976700E-01    6.7351480558E-01
7.0765726225E-01    7.4360031913E-01    7.8111154103E-01    8.1992609158E-01
8.5975051353E-01    9.0026701366E-01    9.4113818395E-01    9.8201208298E-01
1.0225275950E+00    1.0623199787E+00    1.1010265147E+00    1.1382921577E+00
1.1737750992E+00    1.2071521470E+00    1.2381238317E+00    1.2664191515E+00
1.2917998761E+00    1.3140643330E+00    1.3330506118E+00    1.3486391278E+00
1.3607544992E+00    1.3693667023E+00    1.3744914804E+00    1.3761899953E+00
1.3745677230E+00    1.3697726058E+00    1.3619924895E+00    1.3514518812E+00
1.3384080800E+00    1.3231467399E+00    1.3059769364E+00    1.2872258154E+00
1.2672329118E+00    1.2463442314E+00    1.2249061928E+00    1.2032595307E+00
1.1817332632E+00    1.1606388241E+00    1.1402644617E+00    1.1208699988E+00
1.1026820473E+00    1.0858897599E+00    1.0706411962E+00    1.0570403704E+00
1.0451450359E+00    1.0349652516E+00    1.0264627619E+00    1.0195512091E+00
1.0140971832E+00    1.0099221015E+00    1.0068048943E+00    1.0044854624E+00
1.0026688572E+00    1.0010301218E+00    9.9921972136E-01    9.9686948031E-01
9.9359893301E-01    9.8902198981E-01    9.8275381190E-01    9.7441778510E-01
9.6365247946E-01    9.5011848083E-01    9.3350498137E-01    9.1353601858E-01
8.8997625722E-01    8.6263621432E-01    8.3137683558E-01    7.9611334088E-01
7.5681826740E-01    7.1352365113E-01    6.6632230011E-01    6.1536812680E-01
5.6087552222E-01    5.0311776874E-01    4.4242450454E-01    3.7917826508E-01
3.1381014600E-01    2.4679464304E-01    1.7864373860E-01    1.0990031676E-01
4.1131001477E-02   -2.7081478325E-02   -9.4146287283E-02   -1.5947272439E-01
-2.2247858398E-01   -2.8259851111E-01   -3.3929222222E-01   -3.9205246638E-01
-4.4041260303E-01   -4.8395367532E-01   -5.2231087165E-01   -5.5517926790E-01
-5.8231875555E-01   -6.0355808297E-01   -6.1879792853E-01   -6.2801295728E-01
-6.3125283000E-01   -6.2864211846E-01   -6.2037914378E-01   -6.0673373342E-01
-5.8804391641E-01   -5.6471162086E-01   -5.3719739807E-01   -5.0601427333E-01
-4.7172079390E-01   -4.3491336799E-01   -3.9621802200E-01   -3.5628166643E-01
-3.1576302316E-01   -2.7532332444E-01   -2.3561693289E-01   -1.9728200704E-01
-1.6093136504E-01   -1.2714365507E-01   -9.6454998860E-02   -6.9361056061E-02
-4.6277330341E-02   -2.7467788562E-02   -1.3416435145E-02   -4.6630669347E-03
-5.7408763350E-04    4.4952375095E-04    1.1409888482E-04   -1.4021671643E-04
-3.4268383207E-05    2.5187338147E-05    5.4620805583E-06    6.5194084773E-08
1.3294341469E-08    0.0000000000E+00    0.0000000000E+00    0.0000000000E+00
0.0000000000E+00    0.0000000000E+00    0.0000000000E+00    0.0000000000E+00
0.0000000000E+00    0.0000000000E+00    0.0000000000E+00    0.0000000000E+00
0.0000000000E+00    0.0000000000E+00    0.0000000000E+00    0.0000000000E+00
0.0000000000E+00    0.0000000000E+00    0.0000000000E+00    0.0000000000E+00
0.0000000000E+00    0.0000000000E+00    0.0000000000E+00    0.0000000000E+00
0.0000000000E+00    0.0000000000E+00    0.0000000000E+00    0.0000000000E+00
0. 0. 0. 0.
0. 0. 0. 0.
0. 0. 0. 0.
0. 0. 0. 0.
0. 0. 0. 0.
0. 0. 0. 0.
0. 0. 0. 0.
0. 0. 0. 0.
0. 0. 0. 0.
0. 0. 0. 0.
0. 0. 0. 0.
0. 0. 0. 0.
0. 0. 0. 0.
0. 0. 0. 0.
0. 0. 0. 0.
0. 0. 0. 0.
0. 0. 0. 0.
0. 0. 0. 0.
0. 0. 0. 0.
0. 0. 0. 0.
0. 0. 0. 0.
0. 0. 0. 0.
0. 0. 0. 0.
0. 0. 0. 0.
0. 0. 0. 0.
0. 0. 0. 0.
0. 0. 0. 0.
0. 0. 0. 0.
0. 0. 0. 0.
0. 0. 0. 0.
0. 0. 0. 0.
0. 0. 0. 0.
0. 0. 0. 0.
0. 0. 0. 0.
0. 0. 0. 0.