<UPF version="2.0.1">
<PP_INFO>
NOTE!!!!
This file is trimmed with a mesh size of 600 from the original version.
Trimming performed at 2023-03-31 09:10:05.104196 by trim_upf.py version 0.1.0

This pseudopotential file has been produced using the code
ONCVPSP  (Optimized Norm-Conservinng Vanderbilt PSeudopotential)
scalar-relativistic version 3.3.0 08/16/2017 by D. R. Hamann
The code is available through a link at URL www.mat-simresearch.com.
Documentation with the package provides a full discription of the
input data below.
While it is not required under the terms of the GNU GPL, it is
suggested that you cite D. R. Hamann, Phys. Rev. B 88, 085117 (2013)
in any publication using these pseudopotentials.
<PP_INPUTFILE>
# ATOM AND REFERENCE CONFIGURATION
# atsym  z   nc   nv     iexc    psfile
Sn 50.00    8    3       4      upf
#
#   n    l    f        energy (Ha)
1    0    2.00
2    0    2.00
2    1    6.00
3    0    2.00
3    1    6.00
3    2   10.00
4    0    2.00
4    1    6.00
4    2   10.00
5    0    2.00
5    1    2.00
#
# PSEUDOPOTENTIAL AND OPTIMIZATION
# lmax
2
#
#   l,   rc,      ep,       ncon, nbas, qcut
0   2.25000  -0.38768    4    7   3.40000
1   2.60000  -0.13576    4    7   3.40000
2   1.85000  -0.94957    4    8   8.40000
#
# LOCAL POTENTIAL
# lloc, lpopt,  rc(5),   dvloc0
4    5   1.85000      0.00000
#
# VANDERBILT-KLEINMAN-BYLANDER PROJECTORs
# l, nproj, debl
0    2   1.90000
1    2   2.50000
2    2   2.00000
#
# MODEL CORE CHARGE
# icmod, fcfact, rcfact
3   6.50000   1.31000
#
# LOG DERIVATIVE ANALYSIS
# epsh1, epsh2, depsh
-12.00   12.00    0.02
#
# OUTPUT GRID
# rlmax, drl
6.00    0.01
#
# TEST CONFIGURATIONS
# ncnf
0
# nvcnf
#   n    l    f
</PP_INPUTFILE>
</PP_INFO>
<!--                               -->
<!-- END OF HUMAN READABLE SECTION -->
<!--                               -->
<PP_HEADER
generated="Generated using ONCVPSP code by D. R. Hamann"
author="anonymous"
date="171031"
comment=""
element="Sn"
pseudo_type="NC"
relativistic="scalar"
is_ultrasoft="F"
is_paw="F"
is_coulomb="F"
has_so="F"
has_wfc="F"
has_gipaw="F"
core_correction="T"
functional="PBE"
z_valence="   14.00"
total_psenergy="  -1.35164994126E+02"
rho_cutoff="   1.62700000000E+01"
l_max="2"
l_local="-1"
mesh_size="   600"
number_of_wfc="3"
number_of_proj="6"/>
<PP_MESH>
<PP_R type="real"  size="600" columns="8">
0.0000    0.0100    0.0200    0.0300    0.0400    0.0500    0.0600    0.0700
0.0800    0.0900    0.1000    0.1100    0.1200    0.1300    0.1400    0.1500
0.1600    0.1700    0.1800    0.1900    0.2000    0.2100    0.2200    0.2300
0.2400    0.2500    0.2600    0.2700    0.2800    0.2900    0.3000    0.3100
0.3200    0.3300    0.3400    0.3500    0.3600    0.3700    0.3800    0.3900
0.4000    0.4100    0.4200    0.4300    0.4400    0.4500    0.4600    0.4700
0.4800    0.4900    0.5000    0.5100    0.5200    0.5300    0.5400    0.5500
0.5600    0.5700    0.5800    0.5900    0.6000    0.6100    0.6200    0.6300
0.6400    0.6500    0.6600    0.6700    0.6800    0.6900    0.7000    0.7100
0.7200    0.7300    0.7400    0.7500    0.7600    0.7700    0.7800    0.7900
0.8000    0.8100    0.8200    0.8300    0.8400    0.8500    0.8600    0.8700
0.8800    0.8900    0.9000    0.9100    0.9200    0.9300    0.9400    0.9500
0.9600    0.9700    0.9800    0.9900    1.0000    1.0100    1.0200    1.0300
1.0400    1.0500    1.0600    1.0700    1.0800    1.0900    1.1000    1.1100
1.1200    1.1300    1.1400    1.1500    1.1600    1.1700    1.1800    1.1900
1.2000    1.2100    1.2200    1.2300    1.2400    1.2500    1.2600    1.2700
1.2800    1.2900    1.3000    1.3100    1.3200    1.3300    1.3400    1.3500
1.3600    1.3700    1.3800    1.3900    1.4000    1.4100    1.4200    1.4300
1.4400    1.4500    1.4600    1.4700    1.4800    1.4900    1.5000    1.5100
1.5200    1.5300    1.5400    1.5500    1.5600    1.5700    1.5800    1.5900
1.6000    1.6100    1.6200    1.6300    1.6400    1.6500    1.6600    1.6700
1.6800    1.6900    1.7000    1.7100    1.7200    1.7300    1.7400    1.7500
1.7600    1.7700    1.7800    1.7900    1.8000    1.8100    1.8200    1.8300
1.8400    1.8500    1.8600    1.8700    1.8800    1.8900    1.9000    1.9100
1.9200    1.9300    1.9400    1.9500    1.9600    1.9700    1.9800    1.9900
2.0000    2.0100    2.0200    2.0300    2.0400    2.0500    2.0600    2.0700
2.0800    2.0900    2.1000    2.1100    2.1200    2.1300    2.1400    2.1500
2.1600    2.1700    2.1800    2.1900    2.2000    2.2100    2.2200    2.2300
2.2400    2.2500    2.2600    2.2700    2.2800    2.2900    2.3000    2.3100
2.3200    2.3300    2.3400    2.3500    2.3600    2.3700    2.3800    2.3900
2.4000    2.4100    2.4200    2.4300    2.4400    2.4500    2.4600    2.4700
2.4800    2.4900    2.5000    2.5100    2.5200    2.5300    2.5400    2.5500
2.5600    2.5700    2.5800    2.5900    2.6000    2.6100    2.6200    2.6300
2.6400    2.6500    2.6600    2.6700    2.6800    2.6900    2.7000    2.7100
2.7200    2.7300    2.7400    2.7500    2.7600    2.7700    2.7800    2.7900
2.8000    2.8100    2.8200    2.8300    2.8400    2.8500    2.8600    2.8700
2.8800    2.8900    2.9000    2.9100    2.9200    2.9300    2.9400    2.9500
2.9600    2.9700    2.9800    2.9900    3.0000    3.0100    3.0200    3.0300
3.0400    3.0500    3.0600    3.0700    3.0800    3.0900    3.1000    3.1100
3.1200    3.1300    3.1400    3.1500    3.1600    3.1700    3.1800    3.1900
3.2000    3.2100    3.2200    3.2300    3.2400    3.2500    3.2600    3.2700
3.2800    3.2900    3.3000    3.3100    3.3200    3.3300    3.3400    3.3500
3.3600    3.3700    3.3800    3.3900    3.4000    3.4100    3.4200    3.4300
3.4400    3.4500    3.4600    3.4700    3.4800    3.4900    3.5000    3.5100
3.5200    3.5300    3.5400    3.5500    3.5600    3.5700    3.5800    3.5900
3.6000    3.6100    3.6200    3.6300    3.6400    3.6500    3.6600    3.6700
3.6800    3.6900    3.7000    3.7100    3.7200    3.7300    3.7400    3.7500
3.7600    3.7700    3.7800    3.7900    3.8000    3.8100    3.8200    3.8300
3.8400    3.8500    3.8600    3.8700    3.8800    3.8900    3.9000    3.9100
3.9200    3.9300    3.9400    3.9500    3.9600    3.9700    3.9800    3.9900
4.0000    4.0100    4.0200    4.0300    4.0400    4.0500    4.0600    4.0700
4.0800    4.0900    4.1000    4.1100    4.1200    4.1300    4.1400    4.1500
4.1600    4.1700    4.1800    4.1900    4.2000    4.2100    4.2200    4.2300
4.2400    4.2500    4.2600    4.2700    4.2800    4.2900    4.3000    4.3100
4.3200    4.3300    4.3400    4.3500    4.3600    4.3700    4.3800    4.3900
4.4000    4.4100    4.4200    4.4300    4.4400    4.4500    4.4600    4.4700
4.4800    4.4900    4.5000    4.5100    4.5200    4.5300    4.5400    4.5500
4.5600    4.5700    4.5800    4.5900    4.6000    4.6100    4.6200    4.6300
4.6400    4.6500    4.6600    4.6700    4.6800    4.6900    4.7000    4.7100
4.7200    4.7300    4.7400    4.7500    4.7600    4.7700    4.7800    4.7900
4.8000    4.8100    4.8200    4.8300    4.8400    4.8500    4.8600    4.8700
4.8800    4.8900    4.9000    4.9100    4.9200    4.9300    4.9400    4.9500
4.9600    4.9700    4.9800    4.9900    5.0000    5.0100    5.0200    5.0300
5.0400    5.0500    5.0600    5.0700    5.0800    5.0900    5.1000    5.1100
5.1200    5.1300    5.1400    5.1500    5.1600    5.1700    5.1800    5.1900
5.2000    5.2100    5.2200    5.2300    5.2400    5.2500    5.2600    5.2700
5.2800    5.2900    5.3000    5.3100    5.3200    5.3300    5.3400    5.3500
5.3600    5.3700    5.3800    5.3900    5.4000    5.4100    5.4200    5.4300
5.4400    5.4500    5.4600    5.4700    5.4800    5.4900    5.5000    5.5100
5.5200    5.5300    5.5400    5.5500    5.5600    5.5700    5.5800    5.5900
5.6000    5.6100    5.6200    5.6300    5.6400    5.6500    5.6600    5.6700
5.6800    5.6900    5.7000    5.7100    5.7200    5.7300    5.7400    5.7500
5.7600    5.7700    5.7800    5.7900    5.8000    5.8100    5.8200    5.8300
5.8400    5.8500    5.8600    5.8700    5.8800    5.8900    5.9000    5.9100
5.9200    5.9300    5.9400    5.9500    5.9600    5.9700    5.9800    5.9900
</PP_R>
<PP_RAB type="real"  size="600" columns="8">
0.0100    0.0100    0.0100    0.0100    0.0100    0.0100    0.0100    0.0100
0.0100    0.0100    0.0100    0.0100    0.0100    0.0100    0.0100    0.0100
0.0100    0.0100    0.0100    0.0100    0.0100    0.0100    0.0100    0.0100
0.0100    0.0100    0.0100    0.0100    0.0100    0.0100    0.0100    0.0100
0.0100    0.0100    0.0100    0.0100    0.0100    0.0100    0.0100    0.0100
0.0100    0.0100    0.0100    0.0100    0.0100    0.0100    0.0100    0.0100
0.0100    0.0100    0.0100    0.0100    0.0100    0.0100    0.0100    0.0100
0.0100    0.0100    0.0100    0.0100    0.0100    0.0100    0.0100    0.0100
0.0100    0.0100    0.0100    0.0100    0.0100    0.0100    0.0100    0.0100
0.0100    0.0100    0.0100    0.0100    0.0100    0.0100    0.0100    0.0100
0.0100    0.0100    0.0100    0.0100    0.0100    0.0100    0.0100    0.0100
0.0100    0.0100    0.0100    0.0100    0.0100    0.0100    0.0100    0.0100
0.0100    0.0100    0.0100    0.0100    0.0100    0.0100    0.0100    0.0100
0.0100    0.0100    0.0100    0.0100    0.0100    0.0100    0.0100    0.0100
0.0100    0.0100    0.0100    0.0100    0.0100    0.0100    0.0100    0.0100
0.0100    0.0100    0.0100    0.0100    0.0100    0.0100    0.0100    0.0100
0.0100    0.0100    0.0100    0.0100    0.0100    0.0100    0.0100    0.0100
0.0100    0.0100    0.0100    0.0100    0.0100    0.0100    0.0100    0.0100
0.0100    0.0100    0.0100    0.0100    0.0100    0.0100    0.0100    0.0100
0.0100    0.0100    0.0100    0.0100    0.0100    0.0100    0.0100    0.0100
0.0100    0.0100    0.0100    0.0100    0.0100    0.0100    0.0100    0.0100
0.0100    0.0100    0.0100    0.0100    0.0100    0.0100    0.0100    0.0100
0.0100    0.0100    0.0100    0.0100    0.0100    0.0100    0.0100    0.0100
0.0100    0.0100    0.0100    0.0100    0.0100    0.0100    0.0100    0.0100
0.0100    0.0100    0.0100    0.0100    0.0100    0.0100    0.0100    0.0100
0.0100    0.0100    0.0100    0.0100    0.0100    0.0100    0.0100    0.0100
0.0100    0.0100    0.0100    0.0100    0.0100    0.0100    0.0100    0.0100
0.0100    0.0100    0.0100    0.0100    0.0100    0.0100    0.0100    0.0100
0.0100    0.0100    0.0100    0.0100    0.0100    0.0100    0.0100    0.0100
0.0100    0.0100    0.0100    0.0100    0.0100    0.0100    0.0100    0.0100
0.0100    0.0100    0.0100    0.0100    0.0100    0.0100    0.0100    0.0100
0.0100    0.0100    0.0100    0.0100    0.0100    0.0100    0.0100    0.0100
0.0100    0.0100    0.0100    0.0100    0.0100    0.0100    0.0100    0.0100
0.0100    0.0100    0.0100    0.0100    0.0100    0.0100    0.0100    0.0100
0.0100    0.0100    0.0100    0.0100    0.0100    0.0100    0.0100    0.0100
0.0100    0.0100    0.0100    0.0100    0.0100    0.0100    0.0100    0.0100
0.0100    0.0100    0.0100    0.0100    0.0100    0.0100    0.0100    0.0100
0.0100    0.0100    0.0100    0.0100    0.0100    0.0100    0.0100    0.0100
0.0100    0.0100    0.0100    0.0100    0.0100    0.0100    0.0100    0.0100
0.0100    0.0100    0.0100    0.0100    0.0100    0.0100    0.0100    0.0100
0.0100    0.0100    0.0100    0.0100    0.0100    0.0100    0.0100    0.0100
0.0100    0.0100    0.0100    0.0100    0.0100    0.0100    0.0100    0.0100
0.0100    0.0100    0.0100    0.0100    0.0100    0.0100    0.0100    0.0100
0.0100    0.0100    0.0100    0.0100    0.0100    0.0100    0.0100    0.0100
0.0100    0.0100    0.0100    0.0100    0.0100    0.0100    0.0100    0.0100
0.0100    0.0100    0.0100    0.0100    0.0100    0.0100    0.0100    0.0100
0.0100    0.0100    0.0100    0.0100    0.0100    0.0100    0.0100    0.0100
0.0100    0.0100    0.0100    0.0100    0.0100    0.0100    0.0100    0.0100
0.0100    0.0100    0.0100    0.0100    0.0100    0.0100    0.0100    0.0100
0.0100    0.0100    0.0100    0.0100    0.0100    0.0100    0.0100    0.0100
0.0100    0.0100    0.0100    0.0100    0.0100    0.0100    0.0100    0.0100
0.0100    0.0100    0.0100    0.0100    0.0100    0.0100    0.0100    0.0100
0.0100    0.0100    0.0100    0.0100    0.0100    0.0100    0.0100    0.0100
0.0100    0.0100    0.0100    0.0100    0.0100    0.0100    0.0100    0.0100
0.0100    0.0100    0.0100    0.0100    0.0100    0.0100    0.0100    0.0100
0.0100    0.0100    0.0100    0.0100    0.0100    0.0100    0.0100    0.0100
0.0100    0.0100    0.0100    0.0100    0.0100    0.0100    0.0100    0.0100
0.0100    0.0100    0.0100    0.0100    0.0100    0.0100    0.0100    0.0100
0.0100    0.0100    0.0100    0.0100    0.0100    0.0100    0.0100    0.0100
0.0100    0.0100    0.0100    0.0100    0.0100    0.0100    0.0100    0.0100
0.0100    0.0100    0.0100    0.0100    0.0100    0.0100    0.0100    0.0100
0.0100    0.0100    0.0100    0.0100    0.0100    0.0100    0.0100    0.0100
0.0100    0.0100    0.0100    0.0100    0.0100    0.0100    0.0100    0.0100
0.0100    0.0100    0.0100    0.0100    0.0100    0.0100    0.0100    0.0100
0.0100    0.0100    0.0100    0.0100    0.0100    0.0100    0.0100    0.0100
0.0100    0.0100    0.0100    0.0100    0.0100    0.0100    0.0100    0.0100
0.0100    0.0100    0.0100    0.0100    0.0100    0.0100    0.0100    0.0100
0.0100    0.0100    0.0100    0.0100    0.0100    0.0100    0.0100    0.0100
0.0100    0.0100    0.0100    0.0100    0.0100    0.0100    0.0100    0.0100
0.0100    0.0100    0.0100    0.0100    0.0100    0.0100    0.0100    0.0100
0.0100    0.0100    0.0100    0.0100    0.0100    0.0100    0.0100    0.0100
0.0100    0.0100    0.0100    0.0100    0.0100    0.0100    0.0100    0.0100
0.0100    0.0100    0.0100    0.0100    0.0100    0.0100    0.0100    0.0100
0.0100    0.0100    0.0100    0.0100    0.0100    0.0100    0.0100    0.0100
0.0100    0.0100    0.0100    0.0100    0.0100    0.0100    0.0100    0.0100
</PP_RAB>
</PP_MESH>
<PP_LOCAL type="real"  size="600" columns="4">
-3.1169941598E+01   -3.1169629052E+01   -3.1168691329E+01   -3.1167128199E+01
-3.1164939233E+01   -3.1162123739E+01   -3.1158680683E+01   -3.1154608576E+01
-3.1149905358E+01   -3.1144568254E+01   -3.1138593631E+01   -3.1131976836E+01
-3.1124712043E+01   -3.1116792093E+01   -3.1108208337E+01   -3.1098950493E+01
-3.1089006511E+01   -3.1078362452E+01   -3.1067002385E+01   -3.1054908302E+01
-3.1042060057E+01   -3.1028435321E+01   -3.1014009570E+01   -3.0998756085E+01
-3.0982645988E+01   -3.0965648287E+01   -3.0947729960E+01   -3.0928856043E+01
-3.0908989752E+01   -3.0888092615E+01   -3.0866124619E+01   -3.0843044377E+01
-3.0818809301E+01   -3.0793375783E+01   -3.0766699386E+01   -3.0738735035E+01
-3.0709437214E+01   -3.0678760157E+01   -3.0646658040E+01   -3.0613085165E+01
-3.0577996146E+01   -3.0541346077E+01   -3.0503090706E+01   -3.0463186588E+01
-3.0421591243E+01   -3.0378263297E+01   -3.0333162624E+01   -3.0286250479E+01
-3.0237489625E+01   -3.0186844460E+01   -3.0134281143E+01   -3.0079767712E+01
-3.0023274208E+01   -2.9964772798E+01   -2.9904237903E+01   -2.9841646317E+01
-2.9776977343E+01   -2.9710212917E+01   -2.9641337745E+01   -2.9570339430E+01
-2.9497208603E+01   -2.9421939053E+01   -2.9344527847E+01   -2.9264975445E+01
-2.9183285808E+01   -2.9099466488E+01   -2.9013528707E+01   -2.8925487413E+01
-2.8835361321E+01   -2.8743172929E+01   -2.8648948502E+01   -2.8552718041E+01
-2.8454515215E+01   -2.8354377266E+01   -2.8252344896E+01   -2.8148462113E+01
-2.8042776060E+01   -2.7935336824E+01   -2.7826197216E+01   -2.7715412542E+01
-2.7603040357E+01   -2.7489140202E+01   -2.7373773352E+01   -2.7257002535E+01
-2.7138891677E+01   -2.7019505627E+01   -2.6898909898E+01   -2.6777170415E+01
-2.6654353268E+01   -2.6530524473E+01   -2.6405749748E+01   -2.6280094294E+01
-2.6153622595E+01   -2.6026398217E+01   -2.5898483627E+01   -2.5769940018E+01
-2.5640827143E+01   -2.5511203158E+01   -2.5381124471E+01   -2.5250645608E+01
-2.5119819072E+01   -2.4988695225E+01   -2.4857322171E+01   -2.4725745648E+01
-2.4594008936E+01   -2.4462152770E+01   -2.4330215270E+01   -2.4198231894E+01
-2.4066235391E+01   -2.3934255798E+01   -2.3802320438E+01   -2.3670453961E+01
-2.3538678405E+01   -2.3407013289E+01   -2.3275475739E+01   -2.3144080649E+01
-2.3012840881E+01   -2.2881767485E+01   -2.2750869972E+01   -2.2620156598E+01
-2.2489634690E+01   -2.2359310981E+01   -2.2229191966E+01   -2.2099284263E+01
-2.1969594973E+01   -2.1840132023E+01   -2.1710904493E+01   -2.1581922912E+01
-2.1453199502E+01   -2.1324748382E+01   -2.1196585705E+01   -2.1068729732E+01
-2.0941200833E+01   -2.0814021410E+01   -2.0687215744E+01   -2.0560809774E+01
-2.0434830793E+01   -2.0309307083E+01   -2.0184267502E+01   -2.0059741012E+01
-1.9935756189E+01   -1.9812340711E+01   -1.9689520864E+01   -1.9567321056E+01
-1.9445763398E+01   -1.9324867346E+01   -1.9204649432E+01   -1.9085123116E+01
-1.8966298757E+01   -1.8848183722E+01   -1.8730782640E+01   -1.8614097791E+01
-1.8498129626E+01   -1.8382877387E+01   -1.8268339812E+01   -1.8154515889E+01
-1.8041405599E+01   -1.7929010649E+01   -1.7817335106E+01   -1.7706385947E+01
-1.7596173438E+01   -1.7486711392E+01   -1.7378017208E+01   -1.7270111795E+01
-1.7163019278E+01   -1.7056766613E+01   -1.6951383047E+01   -1.6846899516E+01
-1.6743347978E+01   -1.6640760724E+01   -1.6539169705E+01   -1.6438605875E+01
-1.6339098606E+01   -1.6240675149E+01   -1.6143360197E+01   -1.6047175496E+01
-1.5952139572E+01   -1.5858267528E+01   -1.5765570933E+01   -1.5674057370E+01
-1.5583731081E+01   -1.5494592914E+01   -1.5406639575E+01   -1.5319866144E+01
-1.5234261598E+01   -1.5149803081E+01   -1.5066457074E+01   -1.4984179755E+01
-1.4902919699E+01   -1.4822632867E+01   -1.4743298413E+01   -1.4664902873E+01
-1.4587433673E+01   -1.4510879557E+01   -1.4435221925E+01   -1.4360436775E+01
-1.4286501838E+01   -1.4213400640E+01   -1.4141117219E+01   -1.4069633114E+01
-1.3998930341E+01   -1.3928991517E+01   -1.3859799831E+01   -1.3791338807E+01
-1.3723592315E+01   -1.3656544679E+01   -1.3590180682E+01   -1.3524485575E+01
-1.3459445093E+01   -1.3395045459E+01   -1.3331273393E+01   -1.3268116115E+01
-1.3205561343E+01   -1.3143597293E+01   -1.3082212672E+01   -1.3021396676E+01
-1.2961138972E+01   -1.2901429690E+01   -1.2842259415E+01   -1.2783619204E+01
-1.2725500495E+01   -1.2667895121E+01   -1.2610795283E+01   -1.2554193660E+01
-1.2498082919E+01   -1.2442456454E+01   -1.2387308580E+01   -1.2332634770E+01
-1.2278431154E+01   -1.2224695382E+01   -1.2171425631E+01   -1.2118620149E+01
-1.2066274740E+01   -1.2014384734E+01   -1.1962944868E+01   -1.1911949750E+01
-1.1861393794E+01   -1.1811271935E+01   -1.1761580035E+01   -1.1712314059E+01
-1.1663469443E+01   -1.1615041155E+01   -1.1567024092E+01   -1.1519413347E+01
-1.1472204038E+01   -1.1425391244E+01   -1.1378969929E+01   -1.1332935015E+01
-1.1287281392E+01   -1.1242003925E+01   -1.1197097457E+01   -1.1152556804E+01
-1.1108376801E+01   -1.1064552275E+01   -1.1021078039E+01   -1.0977948932E+01
-1.0935159803E+01   -1.0892705629E+01   -1.0850581203E+01   -1.0808781534E+01
-1.0767301873E+01   -1.0726137989E+01   -1.0685286072E+01   -1.0644742526E+01
-1.0604504596E+01   -1.0564569806E+01   -1.0524935772E+01   -1.0485599377E+01
-1.0446556800E+01   -1.0407804109E+01   -1.0369337228E+01   -1.0331152126E+01
-1.0293244806E+01   -1.0255611354E+01   -1.0218248731E+01   -1.0181153893E+01
-1.0144324115E+01   -1.0107756194E+01   -1.0071447055E+01   -1.0035393657E+01
-9.9995931554E+00   -9.9640428690E+00   -9.9287401792E+00   -9.8936825551E+00
-9.8588674981E+00   -9.8242925979E+00   -9.7899555087E+00   -9.7558539560E+00
-9.7219857239E+00   -9.6883486517E+00   -9.6549406290E+00   -9.6217595910E+00
-9.5888035145E+00   -9.5560704133E+00   -9.5235583331E+00   -9.4912653484E+00
-9.4591895576E+00   -9.4273290796E+00   -9.3956820499E+00   -9.3642466178E+00
-9.3330209432E+00   -9.3020031935E+00   -9.2711915416E+00   -9.2405841643E+00
-9.2101792399E+00   -9.1799749471E+00   -9.1499694642E+00   -9.1201609684E+00
-9.0905476349E+00   -9.0611276375E+00   -9.0318991486E+00   -9.0028603398E+00
-8.9740093822E+00   -8.9453444481E+00   -8.9168637117E+00   -8.8885653506E+00
-8.8604475476E+00   -8.8325084917E+00   -8.8047463805E+00   -8.7771594218E+00
-8.7497458352E+00   -8.7225038544E+00   -8.6954317285E+00   -8.6685277246E+00
-8.6417901288E+00   -8.6152172484E+00   -8.5888074125E+00   -8.5625589756E+00
-8.5364703168E+00   -8.5105398417E+00   -8.4847659845E+00   -8.4591472050E+00
-8.4336819934E+00   -8.4083688706E+00   -8.3832064463E+00   -8.3581932116E+00
-8.3333277590E+00   -8.3086087238E+00   -8.2840343627E+00   -8.2596041107E+00
-8.2353169152E+00   -8.2111715911E+00   -8.1871681598E+00   -8.1633029300E+00
-8.1395734771E+00   -8.1159776669E+00   -8.0925116974E+00   -8.0691775182E+00
-8.0459762132E+00   -8.0229087237E+00   -7.9999775357E+00   -7.9771809852E+00
-7.9545170029E+00   -7.9319837411E+00   -7.9095785289E+00   -7.8872996643E+00
-7.8651461911E+00   -7.8431167839E+00   -7.8212102654E+00   -7.7994255673E+00
-7.7777616274E+00   -7.7562174963E+00   -7.7347922725E+00   -7.7134852140E+00
-7.6922952245E+00   -7.6712213450E+00   -7.6502626133E+00   -7.6294180353E+00
-7.6086866896E+00   -7.5880676731E+00   -7.5675600767E+00   -7.5471630023E+00
-7.5268755617E+00   -7.5066968724E+00   -7.4866260632E+00   -7.4666622720E+00
-7.4468046460E+00   -7.4270523414E+00   -7.4074045232E+00   -7.3878603653E+00
-7.3684190502E+00   -7.3490797690E+00   -7.3298417210E+00   -7.3107041143E+00
-7.2916661648E+00   -7.2727270966E+00   -7.2538861421E+00   -7.2351425412E+00
-7.2164955419E+00   -7.1979443999E+00   -7.1794883782E+00   -7.1611267478E+00
-7.1428587866E+00   -7.1246837804E+00   -7.1066010216E+00   -7.0886098103E+00
-7.0707094534E+00   -7.0528992647E+00   -7.0351785650E+00   -7.0175466819E+00
-7.0000029497E+00   -6.9825467091E+00   -6.9651773078E+00   -6.9478940995E+00
-6.9306964446E+00   -6.9135837097E+00   -6.8965552675E+00   -6.8796104971E+00
-6.8627487834E+00   -6.8459695177E+00   -6.8292720967E+00   -6.8126559234E+00
-6.7961204064E+00   -6.7796649600E+00   -6.7632890042E+00   -6.7469919647E+00
-6.7307732724E+00   -6.7146323640E+00   -6.6985686814E+00   -6.6825816717E+00
-6.6666707875E+00   -6.6508354866E+00   -6.6350752316E+00   -6.6193894906E+00
-6.6037777364E+00   -6.5882394470E+00   -6.5727741050E+00   -6.5573811981E+00
-6.5420602187E+00   -6.5268106639E+00   -6.5116320355E+00   -6.4965238399E+00
-6.4814855881E+00   -6.4665167956E+00   -6.4516169822E+00   -6.4367856725E+00
-6.4220223951E+00   -6.4073266830E+00   -6.3926980735E+00   -6.3781361082E+00
-6.3636403327E+00   -6.3492102968E+00   -6.3348455544E+00   -6.3205456633E+00
-6.3063101854E+00   -6.2921386865E+00   -6.2780307364E+00   -6.2639859085E+00
-6.2500037802E+00   -6.2360839326E+00   -6.2222259506E+00   -6.2084294227E+00
-6.1946939409E+00   -6.1810191011E+00   -6.1674045026E+00   -6.1538497482E+00
-6.1403544442E+00   -6.1269182004E+00   -6.1135406300E+00   -6.1002213494E+00
-6.0869599786E+00   -6.0737561408E+00   -6.0606094623E+00   -6.0475195728E+00
-6.0344861051E+00   -6.0215086953E+00   -6.0085869825E+00   -5.9957206090E+00
-5.9829092199E+00   -5.9701524635E+00   -5.9574499913E+00   -5.9448014573E+00
-5.9322065189E+00   -5.9196648361E+00   -5.9071760718E+00   -5.8947398918E+00
-5.8823559647E+00   -5.8700239620E+00   -5.8577435576E+00   -5.8455144285E+00
-5.8333362542E+00   -5.8212087168E+00   -5.8091315013E+00   -5.7971042951E+00
-5.7851267881E+00   -5.7731986731E+00   -5.7613196450E+00   -5.7494894016E+00
-5.7377076429E+00   -5.7259740715E+00   -5.7142883923E+00   -5.7026503127E+00
-5.6910595426E+00   -5.6795157939E+00   -5.6680187812E+00   -5.6565682212E+00
-5.6451638330E+00   -5.6338053378E+00   -5.6224924591E+00   -5.6112249228E+00
-5.6000024568E+00   -5.5888247912E+00   -5.5776916582E+00   -5.5666027923E+00
-5.5555579300E+00   -5.5445568098E+00   -5.5335991725E+00   -5.5226847607E+00
-5.5118133191E+00   -5.5009845946E+00   -5.4901983357E+00   -5.4794542933E+00
-5.4687522199E+00   -5.4580918701E+00   -5.4474730005E+00   -5.4368953693E+00
-5.4263587367E+00   -5.4158628650E+00   -5.4054075180E+00   -5.3949924615E+00
-5.3846174630E+00   -5.3742822919E+00   -5.3639867193E+00   -5.3537305180E+00
-5.3435134627E+00   -5.3333353296E+00   -5.3231958967E+00   -5.3130949438E+00
-5.3030322522E+00   -5.2930076049E+00   -5.2830207866E+00   -5.2730715835E+00
-5.2631597835E+00   -5.2532851762E+00   -5.2434475525E+00   -5.2336467052E+00
-5.2238824282E+00   -5.2141545174E+00   -5.2044627699E+00   -5.1948069845E+00
-5.1851869614E+00   -5.1756025022E+00   -5.1660534101E+00   -5.1565394898E+00
-5.1470605472E+00   -5.1376163898E+00   -5.1282068265E+00   -5.1188316676E+00
-5.1094907247E+00   -5.1001838108E+00   -5.0909107403E+00   -5.0816713290E+00
-5.0724653939E+00   -5.0632927534E+00   -5.0541532273E+00   -5.0450466364E+00
-5.0359728032E+00   -5.0269315512E+00   -5.0179227051E+00   -5.0089460912E+00
-5.0000015367E+00   -4.9910888702E+00   -4.9822079214E+00   -4.9733585214E+00
-4.9645405023E+00   -4.9557536976E+00   -4.9469979417E+00   -4.9382730704E+00
-4.9295789205E+00   -4.9209153301E+00   -4.9122821384E+00   -4.9036791856E+00
-4.8951063132E+00   -4.8865633635E+00   -4.8780501804E+00   -4.8695666084E+00
-4.8611124933E+00   -4.8526876820E+00   -4.8442920223E+00   -4.8359253633E+00
-4.8275875549E+00   -4.8192784481E+00   -4.8109978951E+00   -4.8027457488E+00
-4.7945218633E+00   -4.7863260938E+00   -4.7781582963E+00   -4.7700183278E+00
-4.7619060463E+00   -4.7538213108E+00   -4.7457639813E+00   -4.7377339186E+00
-4.7297309846E+00   -4.7217550419E+00   -4.7138059544E+00   -4.7058835865E+00
-4.6979878039E+00   -4.6901184728E+00   -4.6822754606E+00   -4.6744586355E+00
</PP_LOCAL>
<PP_NONLOCAL>
<PP_BETA.1
type="real"
size="600"
columns="4"
index="1"
angular_momentum="0"
cutoff_radius_index=" 268"
cutoff_radius="    2.6700000000E+00" >
7.3550887603E-13    1.3703030314E-02    2.7418287692E-02    4.1157951257E-02
5.4934104357E-02    6.8758686963E-02    8.2643448393E-02    9.6599900491E-02
1.1063927135E-01    1.2477245972E-01    1.3900999016E-01    1.5336196909E-01
1.6783804184E-01    1.8244735077E-01    1.9719849453E-01    2.1209948873E-01
2.2715772791E-01    2.4237994898E-01    2.5777219627E-01    2.7333978827E-01
2.8908728606E-01    3.0501846358E-01    3.2113627987E-01    3.3744285324E-01
3.5393943753E-01    3.7062640048E-01    3.8750320430E-01    4.0456838856E-01
4.2181955525E-01    4.3925335635E-01    4.5686548374E-01    4.7465066155E-01
4.9260264104E-01    5.1071419796E-01    5.2897713251E-01    5.4738227181E-01
5.6591947500E-01    5.8457764093E-01    6.0334471839E-01    6.2220771904E-01
6.4115273285E-01    6.6016494617E-01    6.7922866228E-01    6.9832732459E-01
7.1744354225E-01    7.3655911827E-01    7.5565508002E-01    7.7471171214E-01
7.9370859178E-01    8.1262462605E-01    8.3143809166E-01    8.5012667673E-01
8.6866752454E-01    8.8703727935E-01    9.0521213396E-01    9.2316787908E-01
9.4087995440E-01    9.5832350112E-01    9.7547341604E-01    9.9230440685E-01
1.0087910487E+00    1.0249078418E+00    1.0406292700E+00    1.0559298604E+00
1.0707842428E+00    1.0851672111E+00    1.0990537835E+00    1.1124192644E+00
1.1252393052E+00    1.1374899659E+00    1.1491477759E+00    1.1601897948E+00
1.1705936728E+00    1.1803377096E+00    1.1894009137E+00    1.1977630597E+00
1.2054047447E+00    1.2123074441E+00    1.2184535649E+00    1.2238264980E+00
1.2284106686E+00    1.2321915849E+00    1.2351558847E+00    1.2372913794E+00
1.2385870962E+00    1.2390333178E+00    1.2386216194E+00    1.2373449030E+00
1.2351974290E+00    1.2321748448E+00    1.2282742104E+00    1.2234940213E+00
1.2178342273E+00    1.2112962491E+00    1.2038829907E+00    1.1955988489E+00
1.1864497191E+00    1.1764429975E+00    1.1655875805E+00    1.1538938591E+00
1.1413737110E+00    1.1280404887E+00    1.1139090036E+00    1.0989955066E+00
1.0833176661E+00    1.0668945405E+00    1.0497465494E+00    1.0318954392E+00
1.0133642471E+00    9.9417726037E-01    9.7435997326E-01    9.5393904010E-01
9.3294222565E-01    9.1139835235E-01    8.8933724465E-01    8.6678967061E-01
8.4378728089E-01    8.2036254518E-01    7.9654868637E-01    7.7237961246E-01
7.4788984648E-01    7.2311445450E-01    6.9808897205E-01    6.7284932890E-01
6.4743177265E-01    6.2187279113E-01    5.9620903390E-01    5.7047723296E-01
5.4471412304E-01    5.1895636152E-01    4.9324044822E-01    4.6760264536E-01
4.4207889780E-01    4.1670475384E-01    3.9151528677E-01    3.6654501738E-01
3.4182783766E-01    3.1739693589E-01    2.9328472334E-01    2.6952276277E-01
2.4614169899E-01    2.2317119154E-01    2.0063984993E-01    1.7857517132E-01
1.5700348113E-01    1.3594987652E-01    1.1543817309E-01    9.5490854789E-02
7.6129027417E-02    5.7372375625E-02    3.9239123730E-02    2.1746000415E-02
4.9082074219E-03   -1.1260607617E-02   -2.6748374122E-02   -4.1544617198E-02
-5.5640471850E-02   -6.9028692743E-02   -8.1703659405E-02   -9.3661376886E-02
-1.0489947175E-01   -1.1541718348E-01   -1.2521535117E-01   -1.3429639563E-01
-1.4266429675E-01   -1.5032456633E-01   -1.5728421629E-01   -1.6355172232E-01
-1.6913698302E-01   -1.7405127475E-01   -1.7830720197E-01   -1.8191864349E-01
-1.8490069447E-01   -1.8726960448E-01   -1.8904271161E-01   -1.9023837284E-01
-1.9087589077E-01   -1.9097543690E-01   -1.9055797160E-01   -1.8964516095E-01
-1.8825929007E-01   -1.8642317684E-01   -1.8416007190E-01   -1.8149358565E-01
-1.7844757708E-01   -1.7504602194E-01   -1.7131296238E-01   -1.6727248798E-01
-1.6294871191E-01   -1.5836578249E-01   -1.5354791184E-01   -1.4851928499E-01
-1.4330399944E-01   -1.3792603218E-01   -1.3240918715E-01   -1.2677704801E-01
-1.2105293264E-01   -1.1525984745E-01   -1.0942044297E-01   -1.0355697032E-01
-9.7691238919E-02   -9.1844575202E-02   -8.6037782486E-02   -8.0291102071E-02
-7.4624175504E-02   -6.9056008153E-02   -6.3604933995E-02   -5.8288581752E-02
-5.3123842331E-02   -4.8126837602E-02   -4.3312890562E-02   -3.8696496865E-02