<UPF version="2.0.1">
<PP_INFO>
NOTE!!!!
This file is trimmed with a mesh size of 600 from the original version.
Trimming performed at 2023-03-31 09:10:05.011223 by trim_upf.py version 0.1.0

This pseudopotential file has been produced using the code
ONCVPSP  (Optimized Norm-Conservinng Vanderbilt PSeudopotential)
scalar-relativistic version 3.3.0 08/16/2017 by D. R. Hamann
The code is available through a link at URL www.mat-simresearch.com.
Documentation with the package provides a full discription of the
input data below.
While it is not required under the terms of the GNU GPL, it is
suggested that you cite D. R. Hamann, Phys. Rev. B 88, 085117 (2013)
in any publication using these pseudopotentials.
<PP_INPUTFILE>
# ATOM AND REFERENCE CONFIGURATION
# atsym  z   nc   nv     iexc    psfile
Sr 38.00    6    3       4      upf
#
#   n    l    f        energy (Ha)
1    0    2.00
2    0    2.00
2    1    6.00
3    0    2.00
3    1    6.00
3    2   10.00
4    0    2.00
4    1    6.00
5    0    2.00
#
# PSEUDOPOTENTIAL AND OPTIMIZATION
# lmax
2
#
#   l,   rc,      ep,       ncon, nbas, qcut
0   1.65000  -1.50306    4    8   6.70000
1   1.30000  -0.83870    4    8   8.30000
2   1.50000  -0.00000    4    8   7.80000
#
# LOCAL POTENTIAL
# lloc, lpopt,  rc(5),   dvloc0
4    5   1.30000      0.00000
#
# VANDERBILT-KLEINMAN-BYLANDER PROJECTORs
# l, nproj, debl
0    2   1.37348
1    2   3.00000
2    2   3.50000
#
# MODEL CORE CHARGE
# icmod, fcfact, rcfact
3   6.00000   1.35000
#
# LOG DERIVATIVE ANALYSIS
# epsh1, epsh2, depsh
-12.00   12.00    0.02
#
# OUTPUT GRID
# rlmax, drl
6.00    0.01
#
# TEST CONFIGURATIONS
# ncnf
0
# nvcnf
#   n    l    f
</PP_INPUTFILE>
</PP_INFO>
<!--                               -->
<!-- END OF HUMAN READABLE SECTION -->
<!--                               -->
<PP_HEADER
generated="Generated using ONCVPSP code by D. R. Hamann"
author="anonymous"
date="171031"
comment=""
element="Sr"
pseudo_type="NC"
relativistic="scalar"
is_ultrasoft="F"
is_paw="F"
is_coulomb="F"
has_so="F"
has_wfc="F"
has_gipaw="F"
core_correction="T"
functional="PBE"
z_valence="   10.00"
total_psenergy="  -6.18065113704E+01"
rho_cutoff="   1.83300000000E+01"
l_max="2"
l_local="-1"
mesh_size="   600"
number_of_wfc="3"
number_of_proj="6"/>
<PP_MESH>
<PP_R type="real"  size="600" columns="8">
0.0000    0.0100    0.0200    0.0300    0.0400    0.0500    0.0600    0.0700
0.0800    0.0900    0.1000    0.1100    0.1200    0.1300    0.1400    0.1500
0.1600    0.1700    0.1800    0.1900    0.2000    0.2100    0.2200    0.2300
0.2400    0.2500    0.2600    0.2700    0.2800    0.2900    0.3000    0.3100
0.3200    0.3300    0.3400    0.3500    0.3600    0.3700    0.3800    0.3900
0.4000    0.4100    0.4200    0.4300    0.4400    0.4500    0.4600    0.4700
0.4800    0.4900    0.5000    0.5100    0.5200    0.5300    0.5400    0.5500
0.5600    0.5700    0.5800    0.5900    0.6000    0.6100    0.6200    0.6300
0.6400    0.6500    0.6600    0.6700    0.6800    0.6900    0.7000    0.7100
0.7200    0.7300    0.7400    0.7500    0.7600    0.7700    0.7800    0.7900
0.8000    0.8100    0.8200    0.8300    0.8400    0.8500    0.8600    0.8700
0.8800    0.8900    0.9000    0.9100    0.9200    0.9300    0.9400    0.9500
0.9600    0.9700    0.9800    0.9900    1.0000    1.0100    1.0200    1.0300
1.0400    1.0500    1.0600    1.0700    1.0800    1.0900    1.1000    1.1100
1.1200    1.1300    1.1400    1.1500    1.1600    1.1700    1.1800    1.1900
1.2000    1.2100    1.2200    1.2300    1.2400    1.2500    1.2600    1.2700
1.2800    1.2900    1.3000    1.3100    1.3200    1.3300    1.3400    1.3500
1.3600    1.3700    1.3800    1.3900    1.4000    1.4100    1.4200    1.4300
1.4400    1.4500    1.4600    1.4700    1.4800    1.4900    1.5000    1.5100
1.5200    1.5300    1.5400    1.5500    1.5600    1.5700    1.5800    1.5900
1.6000    1.6100    1.6200    1.6300    1.6400    1.6500    1.6600    1.6700
1.6800    1.6900    1.7000    1.7100    1.7200    1.7300    1.7400    1.7500
1.7600    1.7700    1.7800    1.7900    1.8000    1.8100    1.8200    1.8300
1.8400    1.8500    1.8600    1.8700    1.8800    1.8900    1.9000    1.9100
1.9200    1.9300    1.9400    1.9500    1.9600    1.9700    1.9800    1.9900
2.0000    2.0100    2.0200    2.0300    2.0400    2.0500    2.0600    2.0700
2.0800    2.0900    2.1000    2.1100    2.1200    2.1300    2.1400    2.1500
2.1600    2.1700    2.1800    2.1900    2.2000    2.2100    2.2200    2.2300
2.2400    2.2500    2.2600    2.2700    2.2800    2.2900    2.3000    2.3100
2.3200    2.3300    2.3400    2.3500    2.3600    2.3700    2.3800    2.3900
2.4000    2.4100    2.4200    2.4300    2.4400    2.4500    2.4600    2.4700
2.4800    2.4900    2.5000    2.5100    2.5200    2.5300    2.5400    2.5500
2.5600    2.5700    2.5800    2.5900    2.6000    2.6100    2.6200    2.6300
2.6400    2.6500    2.6600    2.6700    2.6800    2.6900    2.7000    2.7100
2.7200    2.7300    2.7400    2.7500    2.7600    2.7700    2.7800    2.7900
2.8000    2.8100    2.8200    2.8300    2.8400    2.8500    2.8600    2.8700
2.8800    2.8900    2.9000    2.9100    2.9200    2.9300    2.9400    2.9500
2.9600    2.9700    2.9800    2.9900    3.0000    3.0100    3.0200    3.0300
3.0400    3.0500    3.0600    3.0700    3.0800    3.0900    3.1000    3.1100
3.1200    3.1300    3.1400    3.1500    3.1600    3.1700    3.1800    3.1900
3.2000    3.2100    3.2200    3.2300    3.2400    3.2500    3.2600    3.2700
3.2800    3.2900    3.3000    3.3100    3.3200    3.3300    3.3400    3.3500
3.3600    3.3700    3.3800    3.3900    3.4000    3.4100    3.4200    3.4300
3.4400    3.4500    3.4600    3.4700    3.4800    3.4900    3.5000    3.5100
3.5200    3.5300    3.5400    3.5500    3.5600    3.5700    3.5800    3.5900
3.6000    3.6100    3.6200    3.6300    3.6400    3.6500    3.6600    3.6700
3.6800    3.6900    3.7000    3.7100    3.7200    3.7300    3.7400    3.7500
3.7600    3.7700    3.7800    3.7900    3.8000    3.8100    3.8200    3.8300
3.8400    3.8500    3.8600    3.8700    3.8800    3.8900    3.9000    3.9100
3.9200    3.9300    3.9400    3.9500    3.9600    3.9700    3.9800    3.9900
4.0000    4.0100    4.0200    4.0300    4.0400    4.0500    4.0600    4.0700
4.0800    4.0900    4.1000    4.1100    4.1200    4.1300    4.1400    4.1500
4.1600    4.1700    4.1800    4.1900    4.2000    4.2100    4.2200    4.2300
4.2400    4.2500    4.2600    4.2700    4.2800    4.2900    4.3000    4.3100
4.3200    4.3300    4.3400    4.3500    4.3600    4.3700    4.3800    4.3900
4.4000    4.4100    4.4200    4.4300    4.4400    4.4500    4.4600    4.4700
4.4800    4.4900    4.5000    4.5100    4.5200    4.5300    4.5400    4.5500
4.5600    4.5700    4.5800    4.5900    4.6000    4.6100    4.6200    4.6300
4.6400    4.6500    4.6600    4.6700    4.6800    4.6900    4.7000    4.7100
4.7200    4.7300    4.7400    4.7500    4.7600    4.7700    4.7800    4.7900
4.8000    4.8100    4.8200    4.8300    4.8400    4.8500    4.8600    4.8700
4.8800    4.8900    4.9000    4.9100    4.9200    4.9300    4.9400    4.9500
4.9600    4.9700    4.9800    4.9900    5.0000    5.0100    5.0200    5.0300
5.0400    5.0500    5.0600    5.0700    5.0800    5.0900    5.1000    5.1100
5.1200    5.1300    5.1400    5.1500    5.1600    5.1700    5.1800    5.1900
5.2000    5.2100    5.2200    5.2300    5.2400    5.2500    5.2600    5.2700
5.2800    5.2900    5.3000    5.3100    5.3200    5.3300    5.3400    5.3500
5.3600    5.3700    5.3800    5.3900    5.4000    5.4100    5.4200    5.4300
5.4400    5.4500    5.4600    5.4700    5.4800    5.4900    5.5000    5.5100
5.5200    5.5300    5.5400    5.5500    5.5600    5.5700    5.5800    5.5900
5.6000    5.6100    5.6200    5.6300    5.6400    5.6500    5.6600    5.6700
5.6800    5.6900    5.7000    5.7100    5.7200    5.7300    5.7400    5.7500
5.7600    5.7700    5.7800    5.7900    5.8000    5.8100    5.8200    5.8300
5.8400    5.8500    5.8600    5.8700    5.8800    5.8900    5.9000    5.9100
5.9200    5.9300    5.9400    5.9500    5.9600    5.9700    5.9800    5.9900
</PP_R>
<PP_RAB type="real"  size="600" columns="8">
0.0100    0.0100    0.0100    0.0100    0.0100    0.0100    0.0100    0.0100
0.0100    0.0100    0.0100    0.0100    0.0100    0.0100    0.0100    0.0100
0.0100    0.0100    0.0100    0.0100    0.0100    0.0100    0.0100    0.0100
0.0100    0.0100    0.0100    0.0100    0.0100    0.0100    0.0100    0.0100
0.0100    0.0100    0.0100    0.0100    0.0100    0.0100    0.0100    0.0100
0.0100    0.0100    0.0100    0.0100    0.0100    0.0100    0.0100    0.0100
0.0100    0.0100    0.0100    0.0100    0.0100    0.0100    0.0100    0.0100
0.0100    0.0100    0.0100    0.0100    0.0100    0.0100    0.0100    0.0100
0.0100    0.0100    0.0100    0.0100    0.0100    0.0100    0.0100    0.0100
0.0100    0.0100    0.0100    0.0100    0.0100    0.0100    0.0100    0.0100
0.0100    0.0100    0.0100    0.0100    0.0100    0.0100    0.0100    0.0100
0.0100    0.0100    0.0100    0.0100    0.0100    0.0100    0.0100    0.0100
0.0100    0.0100    0.0100    0.0100    0.0100    0.0100    0.0100    0.0100
0.0100    0.0100    0.0100    0.0100    0.0100    0.0100    0.0100    0.0100
0.0100    0.0100    0.0100    0.0100    0.0100    0.0100    0.0100    0.0100
0.0100    0.0100    0.0100    0.0100    0.0100    0.0100    0.0100    0.0100
0.0100    0.0100    0.0100    0.0100    0.0100    0.0100    0.0100    0.0100
0.0100    0.0100    0.0100    0.0100    0.0100    0.0100    0.0100    0.0100
0.0100    0.0100    0.0100    0.0100    0.0100    0.0100    0.0100    0.0100
0.0100    0.0100    0.0100    0.0100    0.0100    0.0100    0.0100    0.0100
0.0100    0.0100    0.0100    0.0100    0.0100    0.0100    0.0100    0.0100
0.0100    0.0100    0.0100    0.0100    0.0100    0.0100    0.0100    0.0100
0.0100    0.0100    0.0100    0.0100    0.0100    0.0100    0.0100    0.0100
0.0100    0.0100    0.0100    0.0100    0.0100    0.0100    0.0100    0.0100
0.0100    0.0100    0.0100    0.0100    0.0100    0.0100    0.0100    0.0100
0.0100    0.0100    0.0100    0.0100    0.0100    0.0100    0.0100    0.0100
0.0100    0.0100    0.0100    0.0100    0.0100    0.0100    0.0100    0.0100
0.0100    0.0100    0.0100    0.0100    0.0100    0.0100    0.0100    0.0100
0.0100    0.0100    0.0100    0.0100    0.0100    0.0100    0.0100    0.0100
0.0100    0.0100    0.0100    0.0100    0.0100    0.0100    0.0100    0.0100
0.0100    0.0100    0.0100    0.0100    0.0100    0.0100    0.0100    0.0100
0.0100    0.0100    0.0100    0.0100    0.0100    0.0100    0.0100    0.0100
0.0100    0.0100    0.0100    0.0100    0.0100    0.0100    0.0100    0.0100
0.0100    0.0100    0.0100    0.0100    0.0100    0.0100    0.0100    0.0100
0.0100    0.0100    0.0100    0.0100    0.0100    0.0100    0.0100    0.0100
0.0100    0.0100    0.0100    0.0100    0.0100    0.0100    0.0100    0.0100
0.0100    0.0100    0.0100    0.0100    0.0100    0.0100    0.0100    0.0100
0.0100    0.0100    0.0100    0.0100    0.0100    0.0100    0.0100    0.0100
0.0100    0.0100    0.0100    0.0100    0.0100    0.0100    0.0100    0.0100
0.0100    0.0100    0.0100    0.0100    0.0100    0.0100    0.0100    0.0100
0.0100    0.0100    0.0100    0.0100    0.0100    0.0100    0.0100    0.0100
0.0100    0.0100    0.0100    0.0100    0.0100    0.0100    0.0100    0.0100
0.0100    0.0100    0.0100    0.0100    0.0100    0.0100    0.0100    0.0100
0.0100    0.0100    0.0100    0.0100    0.0100    0.0100    0.0100    0.0100
0.0100    0.0100    0.0100    0.0100    0.0100    0.0100    0.0100    0.0100
0.0100    0.0100    0.0100    0.0100    0.0100    0.0100    0.0100    0.0100
0.0100    0.0100    0.0100    0.0100    0.0100    0.0100    0.0100    0.0100
0.0100    0.0100    0.0100    0.0100    0.0100    0.0100    0.0100    0.0100
0.0100    0.0100    0.0100    0.0100    0.0100    0.0100    0.0100    0.0100
0.0100    0.0100    0.0100    0.0100    0.0100    0.0100    0.0100    0.0100
0.0100    0.0100    0.0100    0.0100    0.0100    0.0100    0.0100    0.0100
0.0100    0.0100    0.0100    0.0100    0.0100    0.0100    0.0100    0.0100
0.0100    0.0100    0.0100    0.0100    0.0100    0.0100    0.0100    0.0100
0.0100    0.0100    0.0100    0.0100    0.0100    0.0100    0.0100    0.0100
0.0100    0.0100    0.0100    0.0100    0.0100    0.0100    0.0100    0.0100
0.0100    0.0100    0.0100    0.0100    0.0100    0.0100    0.0100    0.0100
0.0100    0.0100    0.0100    0.0100    0.0100    0.0100    0.0100    0.0100
0.0100    0.0100    0.0100    0.0100    0.0100    0.0100    0.0100    0.0100
0.0100    0.0100    0.0100    0.0100    0.0100    0.0100    0.0100    0.0100
0.0100    0.0100    0.0100    0.0100    0.0100    0.0100    0.0100    0.0100
0.0100    0.0100    0.0100    0.0100    0.0100    0.0100    0.0100    0.0100
0.0100    0.0100    0.0100    0.0100    0.0100    0.0100    0.0100    0.0100
0.0100    0.0100    0.0100    0.0100    0.0100    0.0100    0.0100    0.0100
0.0100    0.0100    0.0100    0.0100    0.0100    0.0100    0.0100    0.0100
0.0100    0.0100    0.0100    0.0100    0.0100    0.0100    0.0100    0.0100
0.0100    0.0100    0.0100    0.0100    0.0100    0.0100    0.0100    0.0100
0.0100    0.0100    0.0100    0.0100    0.0100    0.0100    0.0100    0.0100
0.0100    0.0100    0.0100    0.0100    0.0100    0.0100    0.0100    0.0100
0.0100    0.0100    0.0100    0.0100    0.0100    0.0100    0.0100    0.0100
0.0100    0.0100    0.0100    0.0100    0.0100    0.0100    0.0100    0.0100
0.0100    0.0100    0.0100    0.0100    0.0100    0.0100    0.0100    0.0100
0.0100    0.0100    0.0100    0.0100    0.0100    0.0100    0.0100    0.0100
0.0100    0.0100    0.0100    0.0100    0.0100    0.0100    0.0100    0.0100
0.0100    0.0100    0.0100    0.0100    0.0100    0.0100    0.0100    0.0100
0.0100    0.0100    0.0100    0.0100    0.0100    0.0100    0.0100    0.0100
</PP_RAB>
</PP_MESH>
<PP_LOCAL type="real"  size="600" columns="4">
-3.2228424840E+01   -3.2226673810E+01   -3.2221421547E+01   -3.2212670553E+01
-3.2200424990E+01   -3.2184690673E+01   -3.2165475062E+01   -3.2142787243E+01
-3.2116637919E+01   -3.2087039383E+01   -3.2054005499E+01   -3.2017551678E+01
-3.1977694847E+01   -3.1934453423E+01   -3.1887847276E+01   -3.1837897697E+01
-3.1784627362E+01   -3.1728060293E+01   -3.1668221816E+01   -3.1605138524E+01
-3.1538838234E+01   -3.1469349941E+01   -3.1396703777E+01   -3.1320930971E+01
-3.1242063798E+01   -3.1160135541E+01   -3.1075180446E+01   -3.0987233678E+01
-3.0896331285E+01   -3.0802510149E+01   -3.0705807952E+01   -3.0606263137E+01
-3.0503914869E+01   -3.0398803001E+01   -3.0290968039E+01   -3.0180451112E+01
-3.0067293940E+01   -2.9951538809E+01   -2.9833228541E+01   -2.9712406477E+01
-2.9589116449E+01   -2.9463402772E+01   -2.9335310221E+01   -2.9204884024E+01
-2.9072169855E+01   -2.8937213825E+01   -2.8800062488E+01   -2.8660762840E+01
-2.8519362328E+01   -2.8375908860E+01   -2.8230450824E+01   -2.8083037104E+01
-2.7933717104E+01   -2.7782540775E+01   -2.7629558646E+01   -2.7474821855E+01
-2.7318382185E+01   -2.7160292101E+01   -2.7000604786E+01   -2.6839374182E+01
-2.6676655024E+01   -2.6512502879E+01   -2.6346974178E+01   -2.6180126246E+01
-2.6012017331E+01   -2.5842706620E+01   -2.5672254264E+01   -2.5500721376E+01
-2.5328170044E+01   -2.5154663319E+01   -2.4980265203E+01   -2.4805040634E+01
-2.4629055449E+01   -2.4452376353E+01   -2.4275070874E+01   -2.4097207309E+01
-2.3918854664E+01   -2.3740082595E+01   -2.3560961330E+01   -2.3381561592E+01
-2.3201954524E+01   -2.3022211595E+01   -2.2842404518E+01   -2.2662605151E+01
-2.2482885406E+01   -2.2303317152E+01   -2.2123972117E+01   -2.1944921789E+01
-2.1766237316E+01   -2.1587989410E+01   -2.1410248244E+01   -2.1233083362E+01
-2.1056563575E+01   -2.0880756873E+01   -2.0705730330E+01   -2.0531550016E+01
-2.0358280909E+01   -2.0185986811E+01   -2.0014730268E+01   -1.9844572490E+01
-1.9675573278E+01   -1.9507790948E+01   -1.9341282261E+01   -1.9176102357E+01
-1.9012304685E+01   -1.8849940935E+01   -1.8689060974E+01   -1.8529712774E+01
-1.8371942346E+01   -1.8215793666E+01   -1.8061308594E+01   -1.7908526801E+01
-1.7757485674E+01   -1.7608220226E+01   -1.7460762995E+01   -1.7315143937E+01
-1.7171390302E+01   -1.7029526518E+01   -1.6889574047E+01   -1.6751551251E+01
-1.6615473231E+01   -1.6481351676E+01   -1.6349194695E+01   -1.6219006642E+01
-1.6090787946E+01   -1.5964534933E+01   -1.5840239695E+01   -1.5717889617E+01
-1.5597467824E+01   -1.5478952635E+01   -1.5362318720E+01   -1.5247526456E+01
-1.5134513737E+01   -1.5023196135E+01   -1.4913489885E+01   -1.4805346549E+01
-1.4698733588E+01   -1.4593622968E+01   -1.4489973095E+01   -1.4387741395E+01
-1.4286895735E+01   -1.4187403658E+01   -1.4089232142E+01   -1.3992350229E+01
-1.3896728187E+01   -1.3802337319E+01   -1.3709150034E+01   -1.3617139791E+01
-1.3526281061E+01   -1.3436549289E+01   -1.3347920863E+01   -1.3260373087E+01
-1.3173884147E+01   -1.3088433088E+01   -1.3003999789E+01   -1.2920564937E+01
-1.2838110004E+01   -1.2756617225E+01   -1.2676069578E+01   -1.2596450754E+01
-1.2517745139E+01   -1.2439937837E+01   -1.2363014551E+01   -1.2286961598E+01
-1.2211765870E+01   -1.2137414765E+01   -1.2063897412E+01   -1.1991205144E+01
-1.1919331381E+01   -1.1848271616E+01   -1.1778019678E+01   -1.1708565529E+01
-1.1639898280E+01   -1.1572007418E+01   -1.1504882780E+01   -1.1438515434E+01
-1.1372896693E+01   -1.1308017244E+01   -1.1243867817E+01   -1.1180439397E+01
-1.1117722989E+01   -1.1055709603E+01   -1.0994390267E+01   -1.0933756012E+01
-1.0873797870E+01   -1.0814506858E+01   -1.0755873980E+01   -1.0697890218E+01
-1.0640546534E+01   -1.0583833867E+01   -1.0527743135E+01   -1.0472265239E+01
-1.0417391065E+01   -1.0363111491E+01   -1.0309417393E+01   -1.0256299653E+01
-1.0203749171E+01   -1.0151756869E+01   -1.0100313706E+01   -1.0049410688E+01
-9.9990388794E+00   -9.9491894137E+00   -9.8998535077E+00   -9.8510224720E+00
-9.8026877225E+00   -9.7548407921E+00   -9.7074733413E+00   -9.6605771680E+00
-9.6141442175E+00   -9.5681665904E+00   -9.5226365506E+00   -9.4775465316E+00
-9.4328891418E+00   -9.3886571695E+00   -9.3448435855E+00   -9.3014415455E+00
-9.2584443912E+00   -9.2158456504E+00   -9.1736390351E+00   -9.1318184405E+00
-9.0903779412E+00   -9.0493117876E+00   -9.0086144016E+00   -8.9682803706E+00
-8.9283044426E+00   -8.8886815190E+00   -8.8494066485E+00   -8.8104750199E+00
-8.7718819550E+00   -8.7336229015E+00   -8.6956934256E+00   -8.6580892048E+00
-8.6208060213E+00   -8.5838397550E+00   -8.5471863772E+00   -8.5108419443E+00
-8.4748025924E+00   -8.4390645322E+00   -8.4036240437E+00   -8.3684774726E+00
-8.3336212260E+00   -8.2990517694E+00   -8.2647656241E+00   -8.2307593646E+00
-8.1970296168E+00   -8.1635730573E+00   -8.1303864117E+00   -8.0974664543E+00
-8.0648100083E+00   -8.0324139455E+00   -8.0002751866E+00   -7.9683907022E+00
-7.9367575131E+00   -7.9053726912E+00   -7.8742333605E+00   -7.8433366978E+00
-7.8126799335E+00   -7.7822603521E+00   -7.7520752930E+00   -7.7221221504E+00
-7.6923983736E+00   -7.6629014666E+00   -7.6336289875E+00   -7.6045785474E+00
-7.5757478095E+00   -7.5471344870E+00   -7.5187363410E+00   -7.4905511784E+00
-7.4625768491E+00   -7.4348112422E+00   -7.4072522832E+00   -7.3798979303E+00
-7.3527461701E+00   -7.3257950133E+00   -7.2990424915E+00   -7.2724866519E+00
-7.2461255538E+00   -7.2199572643E+00   -7.1939798545E+00   -7.1681913963E+00
-7.1425899585E+00   -7.1171736048E+00   -7.0919403913E+00   -7.0668883651E+00
-7.0420155625E+00   -7.0173200094E+00   -6.9927997222E+00   -6.9684527070E+00
-6.9442769625E+00   -6.9202704826E+00   -6.8964312589E+00   -6.8727572837E+00
-6.8492465549E+00   -6.8258970806E+00   -6.8027068827E+00   -6.7796740025E+00
-6.7567965060E+00   -6.7340724884E+00   -6.7115000796E+00   -6.6890774481E+00
-6.6668028050E+00   -6.6446744097E+00   -6.6226905714E+00   -6.6008496519E+00
-6.5791500676E+00   -6.5575902930E+00   -6.5361688583E+00   -6.5148843502E+00
-6.4937354124E+00   -6.4727207431E+00   -6.4518390929E+00   -6.4310892620E+00
-6.4104700980E+00   -6.3899804915E+00   -6.3696193728E+00   -6.3493857076E+00
-6.3292784925E+00   -6.3092967512E+00   -6.2894395308E+00   -6.2697058961E+00
-6.2500949265E+00   -6.2306057125E+00   -6.2112373527E+00   -6.1919889487E+00
-6.1728596038E+00   -6.1538484205E+00   -6.1349544985E+00   -6.1161769319E+00
-6.0975148089E+00   -6.0789672106E+00   -6.0605332109E+00   -6.0422118749E+00
-6.0240022599E+00   -6.0059034158E+00   -5.9879143847E+00   -5.9700342028E+00
-5.9522619001E+00   -5.9345965024E+00   -5.9170370316E+00   -5.8995825077E+00
-5.8822319498E+00   -5.8649843771E+00   -5.8478388104E+00   -5.8307942740E+00
-5.8138497963E+00   -5.7970044114E+00   -5.7802571598E+00   -5.7636070905E+00
-5.7470532614E+00   -5.7305947406E+00   -5.7142306067E+00   -5.6979599507E+00
-5.6817818760E+00   -5.6656954991E+00   -5.6496999496E+00   -5.6337943727E+00
-5.6179779291E+00   -5.6022497937E+00   -5.5866091650E+00   -5.5710552571E+00
-5.5555872540E+00   -5.5402043823E+00   -5.5249058930E+00   -5.5096909312E+00
-5.4945589877E+00   -5.4795094352E+00   -5.4645416298E+00   -5.4496550085E+00
-5.4348487455E+00   -5.4201219223E+00   -5.4054736566E+00   -5.3909031358E+00
-5.3764096155E+00   -5.3619919608E+00   -5.3476493832E+00   -5.3333812857E+00
-5.3191862978E+00   -5.3050654627E+00   -5.2910196304E+00   -5.2770493790E+00
-5.2631556749E+00   -5.2493391405E+00   -5.2355974239E+00   -5.2219291823E+00
-5.2083329313E+00   -5.1948061675E+00   -5.1813486137E+00   -5.1679600684E+00
-5.1546401126E+00   -5.1413885024E+00   -5.1282053425E+00   -5.1150896717E+00
-5.1020409799E+00   -5.0890587416E+00   -5.0761423799E+00   -5.0632913679E+00
-5.0505052599E+00   -5.0377835653E+00   -5.0251257986E+00   -5.0125314794E+00
-5.0000001317E+00   -4.9875312841E+00   -4.9751244703E+00   -4.9627792286E+00
-4.9504951021E+00   -4.9382716379E+00   -4.9261083876E+00   -4.9140049076E+00
-4.9019607583E+00   -4.8899755045E+00   -4.8780487154E+00   -4.8661799641E+00
-4.8543688280E+00   -4.8426148887E+00   -4.8309177317E+00   -4.8192769465E+00
-4.8076921266E+00   -4.7961628694E+00   -4.7846887761E+00   -4.7732694518E+00
-4.7619045052E+00   -4.7505935488E+00   -4.7393361989E+00   -4.7281320752E+00
-4.7169808013E+00   -4.7058820039E+00   -4.6948353136E+00   -4.6838403642E+00
-4.6728967932E+00   -4.6620042412E+00   -4.6511623523E+00   -4.6403707738E+00
-4.6296291564E+00   -4.6189371538E+00   -4.6082944233E+00   -4.5977006249E+00
-4.5871554220E+00   -4.5766584809E+00   -4.5662094711E+00   -4.5558080651E+00
-4.5454539383E+00   -4.5351467691E+00   -4.5248862387E+00   -4.5146720313E+00
-4.5045038339E+00   -4.4943813364E+00   -4.4843042313E+00   -4.4742722141E+00
-4.4642849827E+00   -4.4543422379E+00   -4.4444436833E+00   -4.4345890247E+00
-4.4247779709E+00   -4.4150102332E+00   -4.4052855252E+00   -4.3956035633E+00
-4.3859640662E+00   -4.3763667552E+00   -4.3668113540E+00   -4.3572975886E+00
-4.3478251875E+00   -4.3383938816E+00   -4.3290034039E+00   -4.3196534899E+00
-4.3103438774E+00   -4.3010743064E+00   -4.2918445191E+00   -4.2826542599E+00
-4.2735032754E+00   -4.2643913144E+00   -4.2553181278E+00   -4.2462834688E+00
-4.2372870922E+00   -4.2283287555E+00   -4.2194082178E+00   -4.2105252404E+00
-4.2016795865E+00   -4.1928710215E+00   -4.1840993125E+00   -4.1753642288E+00
-4.1666655413E+00   -4.1580030232E+00   -4.1493764493E+00   -4.1407855964E+00
-4.1322302430E+00   -4.1237101695E+00   -4.1152251582E+00   -4.1067749931E+00
-4.0983594600E+00   -4.0899783464E+00   -4.0816314416E+00   -4.0733185365E+00
-4.0650394239E+00   -4.0567938981E+00   -4.0485817552E+00   -4.0404027928E+00
-4.0322568103E+00   -4.0241436085E+00   -4.0160629900E+00   -4.0080147590E+00
-3.9999987210E+00   -3.9920146833E+00   -3.9840624548E+00   -3.9761418456E+00
-3.9682526675E+00   -3.9603947339E+00   -3.9525678595E+00   -3.9447718605E+00
-3.9370065545E+00   -3.9292717608E+00   -3.9215672997E+00   -3.9138929933E+00
-3.9062486648E+00   -3.8986341389E+00   -3.8910492417E+00   -3.8834938005E+00
-3.8759676442E+00   -3.8684706028E+00   -3.8610025077E+00   -3.8535631915E+00
-3.8461524883E+00   -3.8387702332E+00   -3.8314162628E+00   -3.8240904148E+00
-3.8167925283E+00   -3.8095224433E+00   -3.8022800015E+00   -3.7950650454E+00
-3.7878774188E+00   -3.7807169668E+00   -3.7735835355E+00   -3.7664769723E+00
-3.7593971257E+00   -3.7523438453E+00   -3.7453169818E+00   -3.7383163871E+00
-3.7313419142E+00   -3.7243934172E+00   -3.7174707511E+00   -3.7105737723E+00
-3.7037023380E+00   -3.6968563066E+00   -3.6900355375E+00   -3.6832398910E+00
-3.6764692287E+00   -3.6697234130E+00   -3.6630023074E+00   -3.6563057764E+00
-3.6496336854E+00   -3.6429859009E+00   -3.6363622903E+00   -3.6297627220E+00
-3.6231870654E+00   -3.6166351906E+00   -3.6101069690E+00   -3.6036022726E+00
-3.5971209745E+00   -3.5906629487E+00   -3.5842280701E+00   -3.5778162145E+00
-3.5714272584E+00   -3.5650610796E+00   -3.5587175563E+00   -3.5523965678E+00
-3.5460979943E+00   -3.5398217167E+00   -3.5335676170E+00   -3.5273355777E+00
-3.5211254822E+00   -3.5149372150E+00   -3.5087706612E+00   -3.5026257065E+00
-3.4965022379E+00   -3.4904001427E+00   -3.4843193093E+00   -3.4782596267E+00
-3.4722209847E+00   -3.4662032740E+00   -3.4602063860E+00   -3.4542302127E+00
-3.4482746469E+00   -3.4423395824E+00   -3.4364249133E+00   -3.4305305348E+00
-3.4246563426E+00   -3.4188022332E+00   -3.4129681038E+00   -3.4071538522E+00
-3.4013593771E+00   -3.3955845777E+00   -3.3898293539E+00   -3.3840936065E+00
-3.3783772366E+00   -3.3726801463E+00   -3.3670022382E+00   -3.3613434156E+00
-3.3557035824E+00   -3.3500826431E+00   -3.3444805030E+00   -3.3388970680E+00
</PP_LOCAL>
<PP_NONLOCAL>
<PP_BETA.1
type="real"
size="600"
columns="4"
index="1"
angular_momentum="0"
cutoff_radius_index=" 172"
cutoff_radius="    1.7100000000E+00" >
-7.3971107017E-11    4.3412212220E-02    8.6784122105E-02    1.3007551827E-01
1.7324636988E-01    2.1625691360E-01    2.5906773661E-01    3.0163985440E-01
3.4393478229E-01    3.8591459955E-01    4.2754200516E-01    4.6878036438E-01
5.0959374551E-01    5.4994694611E-01    5.8980550849E-01    6.2913572409E-01
6.6790462672E-01    7.0607997483E-01    7.4363022304E-01    7.8052448336E-01
8.1673247689E-01    8.5222447660E-01    8.8697124237E-01    9.2094394923E-01
9.5411411020E-01    9.8645349508E-01    1.0179340467E+00    1.0485277963E+00
1.0782067795E+00    1.1069429552E+00    1.1347081280E+00    1.1614738782E+00
1.1872114977E+00    1.2118919380E+00    1.2354857673E+00    1.2579631428E+00
1.2792937961E+00    1.2994470356E+00    1.3183917662E+00    1.3360965272E+00
1.3525295504E+00    1.3676588373E+00    1.3814522584E+00    1.3938776731E+00
1.4049030699E+00    1.4144967292E+00    1.4226274052E+00    1.4292645283E+00
1.4343784257E+00    1.4379405606E+00    1.4399237860E+00    1.4403026136E+00
1.4390534952E+00    1.4361551127E+00    1.4315886772E+00    1.4253382319E+00
1.4173909574E+00    1.4077374756E+00    1.3963721502E+00    1.3832933791E+00
1.3685038770E+00    1.3520109437E+00    1.3338267152E+00    1.3139683948E+00
1.2924584602E+00    1.2693248444E+00    1.2446010869E+00    1.2183264523E+00
1.1905460144E+00    1.1613107032E+00    1.1306773126E+00    1.0987084674E+00
1.0654725478E+00    1.0310435709E+00    9.9550102834E-01    9.5892967958E-01
9.2141930105E-01    8.8306439205E-01    8.4396383796E-01    8.0422053234E-01
7.6394095967E-01    7.2323474093E-01    6.8221414465E-01    6.4099356638E-01
5.9968897998E-01    5.5841736426E-01    5.1729610923E-01    4.7644240584E-01
4.3597262407E-01    3.9600168388E-01    3.5664242382E-01    3.1800497249E-01
2.8019612771E-01    2.4331874856E-01    2.0747116526E-01    1.7274661207E-01
1.3923268779E-01    1.0701084874E-01    7.6155938757E-02    4.6735760231E-02
1.8810690292E-02   -7.5666543214E-03   -3.2351700500E-02   -5.5508147295E-02
-7.7008137349E-02   -9.6832369341E-02   -1.1497015001E-01   -1.3141938483E-01
-1.4618650694E-01   -1.5928634436E-01   -1.7074192623E-01   -1.8058422907E-01
-1.8885186474E-01   -1.9559071230E-01   -2.0085349614E-01   -2.0469931361E-01
-2.0719311539E-01   -2.0840514262E-01   -2.0841032458E-01   -2.0728764169E-01
-2.0511945835E-01   -2.0199083032E-01   -1.9798879200E-01   -1.9320162843E-01
-1.8771813725E-01   -1.8162688581E-01   -1.7501546848E-01   -1.6796976856E-01
-1.6057323242E-01   -1.5290614800E-01   -1.4504499157E-01   -1.3706166357E-01
-1.2902290633E-01   -1.2099029929E-01   -1.1302039873E-01   -1.0516502583E-01
-9.7471014802E-02   -8.9980110162E-02   -8.2728930938E-02   -7.5748968642E-02
-6.9066634948E-02   -6.2703356095E-02   -5.6675712903E-02   -5.0995623849E-02
-4.5670569705E-02   -4.0703855807E-02   -3.6094909723E-02   -3.1839610192E-02
-2.7930643590E-02   -2.4357884069E-02   -2.1108792441E-02   -1.8168829931E-02
-1.5521881489E-02   -1.3150684353E-02   -1.1037256716E-02   -9.1633220301E-03
-7.5107237412E-03   -6.0618266028E-03   -4.7998989143E-03   -3.7094731843E-03
-2.7766788640E-03   -1.9896431211E-03   -1.3387381561E-03   -8.1478920356E-04
-4.1391357173E-04   -1.4055645076E-04    8.8963538709E-06    5.2387518747E-05
2.7147024153E-05   -5.0019156009E-06   -7.7419530382E-06    8.5207230245E-07
0. 0. 0. 0.
0. 0. 0. 0.
0. 0. 0. 0.
0. 0. 0. 0.
0. 0. 0. 0.
0. 0. 0. 0.
0. 0. 0. 0.
0. 0. 0. 0.
0. 0. 0. 0.
0. 0. 0. 0.
0. 0. 0. 0.
0. 0. 0. 0.
0. 0. 0. 0.
0. 0. 0. 0.
0. 0. 0. 0.
0. 0. 0. 0.
0. 0. 0. 0.
0. 0. 0. 0.
0. 0. 0. 0.
0. 0. 0. 0.
0. 0. 0. 0.
0. 0. 0. 0.
0. 0. 0. 0.
0. 0. 0. 0.
0. 0. 0. 0.
0. 0. 0. 0.
0. 0. 0. 0.
0. 0. 0. 0.
0. 0. 0. 0.
0. 0. 0. 0.
0. 0. 0. 0.
0. 0. 0. 0.
0. 0. 0. 0.
0. 0. 0. 0.
0. 0. 0. 0.
0. 0. 0. 0.
0. 0. 0. 0.
0. 0. 0. 0.
0. 0. 0. 0.
0. 0. 0. 0.
0. 0. 0. 0.
0. 0. 0. 0.
0. 0. 0. 0.
0. 0. 0. 0.
0. 0. 0. 0.
0. 0. 0. 0.
0. 0. 0. 0.
0. 0. 0. 0.
0. 0. 0. 0.
0. 0. 0. 0.
0. 0. 0. 0.
0. 0. 0. 0.
0. 0. 0. 0.
0. 0. 0. 0.
0. 0. 0. 0.
0. 0. 0. 0.
0. 0. 0. 0.
0. 0. 0. 0.
0. 0. 0. 0.
0. 0. 0. 0.
0. 0. 0. 0.
0. 0. 0. 0.
0. 0. 0. 0.
0. 0. 0. 0.
0. 0. 0. 0.
0. 0. 0. 0.
0. 0. 0. 0.
0. 0. 0. 0.