<UPF version="2.0.1">
<PP_INFO>
NOTE!!!!
This file is trimmed with a mesh size of 600 from the original version.
Trimming performed at 2023-03-31 09:10:05.044756 by trim_upf.py version 0.1.0

This pseudopotential file has been produced using the code
ONCVPSP  (Optimized Norm-Conservinng Vanderbilt PSeudopotential)
scalar-relativistic version 3.3.0 08/16/2017 by D. R. Hamann
The code is available through a link at URL www.mat-simresearch.com.
Documentation with the package provides a full discription of the
input data below.
While it is not required under the terms of the GNU GPL, it is
suggested that you cite D. R. Hamann, Phys. Rev. B 88, 085117 (2013)
in any publication using these pseudopotentials.
<PP_INPUTFILE>
# ATOM AND REFERENCE CONFIGURATION
# atsym  z   nc   nv     iexc    psfile
Ta 73.00   10    4       4      upf
#
#   n    l    f        energy (Ha)
1    0    2.00
2    0    2.00
2    1    6.00
3    0    2.00
3    1    6.00
3    2   10.00
4    0    2.00
4    1    6.00
4    2   10.00
4    3   14.00
5    0    2.00
5    1    6.00
5    2    3.00
6    0    2.00
#
# PSEUDOPOTENTIAL AND OPTIMIZATION
# lmax
3
#
#   l,   rc,      ep,       ncon, nbas, qcut
0   1.70000  -2.68280    4    8   7.00000
1   1.70000  -1.44789    4    8   7.40000
2   1.70000  -0.13196    4    9   6.60000
3   2.25000   0.50000    4    8   6.80000
#
# LOCAL POTENTIAL
# lloc, lpopt,  rc(5),   dvloc0
4    5   1.60000      0.00000
#
# VANDERBILT-KLEINMAN-BYLANDER PROJECTORs
# l, nproj, debl
0    2   2.48279
1    2   1.50000
2    2   1.80000
3    2   2.50000
#
# MODEL CORE CHARGE
# icmod, fcfact, rcfact
3   5.00000   1.36000
#
# LOG DERIVATIVE ANALYSIS
# epsh1, epsh2, depsh
-12.00   12.00    0.02
#
# OUTPUT GRID
# rlmax, drl
6.00    0.01
#
# TEST CONFIGURATIONS
# ncnf
0
# nvcnf
#   n    l    f
</PP_INPUTFILE>
</PP_INFO>
<!--                               -->
<!-- END OF HUMAN READABLE SECTION -->
<!--                               -->
<PP_HEADER
generated="Generated using ONCVPSP code by D. R. Hamann"
author="anonymous"
date="171031"
comment=""
element="Ta"
pseudo_type="NC"
relativistic="scalar"
is_ultrasoft="F"
is_paw="F"
is_coulomb="F"
has_so="F"
has_wfc="F"
has_gipaw="F"
core_correction="T"
functional="PBE"
z_valence="   13.00"
total_psenergy="  -1.17422243877E+02"
rho_cutoff="   1.44900000000E+01"
l_max="3"
l_local="-1"
mesh_size="   600"
number_of_wfc="4"
number_of_proj="8"/>
<PP_MESH>
<PP_R type="real"  size="600" columns="8">
0.0000    0.0100    0.0200    0.0300    0.0400    0.0500    0.0600    0.0700
0.0800    0.0900    0.1000    0.1100    0.1200    0.1300    0.1400    0.1500
0.1600    0.1700    0.1800    0.1900    0.2000    0.2100    0.2200    0.2300
0.2400    0.2500    0.2600    0.2700    0.2800    0.2900    0.3000    0.3100
0.3200    0.3300    0.3400    0.3500    0.3600    0.3700    0.3800    0.3900
0.4000    0.4100    0.4200    0.4300    0.4400    0.4500    0.4600    0.4700
0.4800    0.4900    0.5000    0.5100    0.5200    0.5300    0.5400    0.5500
0.5600    0.5700    0.5800    0.5900    0.6000    0.6100    0.6200    0.6300
0.6400    0.6500    0.6600    0.6700    0.6800    0.6900    0.7000    0.7100
0.7200    0.7300    0.7400    0.7500    0.7600    0.7700    0.7800    0.7900
0.8000    0.8100    0.8200    0.8300    0.8400    0.8500    0.8600    0.8700
0.8800    0.8900    0.9000    0.9100    0.9200    0.9300    0.9400    0.9500
0.9600    0.9700    0.9800    0.9900    1.0000    1.0100    1.0200    1.0300
1.0400    1.0500    1.0600    1.0700    1.0800    1.0900    1.1000    1.1100
1.1200    1.1300    1.1400    1.1500    1.1600    1.1700    1.1800    1.1900
1.2000    1.2100    1.2200    1.2300    1.2400    1.2500    1.2600    1.2700
1.2800    1.2900    1.3000    1.3100    1.3200    1.3300    1.3400    1.3500
1.3600    1.3700    1.3800    1.3900    1.4000    1.4100    1.4200    1.4300
1.4400    1.4500    1.4600    1.4700    1.4800    1.4900    1.5000    1.5100
1.5200    1.5300    1.5400    1.5500    1.5600    1.5700    1.5800    1.5900
1.6000    1.6100    1.6200    1.6300    1.6400    1.6500    1.6600    1.6700
1.6800    1.6900    1.7000    1.7100    1.7200    1.7300    1.7400    1.7500
1.7600    1.7700    1.7800    1.7900    1.8000    1.8100    1.8200    1.8300
1.8400    1.8500    1.8600    1.8700    1.8800    1.8900    1.9000    1.9100
1.9200    1.9300    1.9400    1.9500    1.9600    1.9700    1.9800    1.9900
2.0000    2.0100    2.0200    2.0300    2.0400    2.0500    2.0600    2.0700
2.0800    2.0900    2.1000    2.1100    2.1200    2.1300    2.1400    2.1500
2.1600    2.1700    2.1800    2.1900    2.2000    2.2100    2.2200    2.2300
2.2400    2.2500    2.2600    2.2700    2.2800    2.2900    2.3000    2.3100
2.3200    2.3300    2.3400    2.3500    2.3600    2.3700    2.3800    2.3900
2.4000    2.4100    2.4200    2.4300    2.4400    2.4500    2.4600    2.4700
2.4800    2.4900    2.5000    2.5100    2.5200    2.5300    2.5400    2.5500
2.5600    2.5700    2.5800    2.5900    2.6000    2.6100    2.6200    2.6300
2.6400    2.6500    2.6600    2.6700    2.6800    2.6900    2.7000    2.7100
2.7200    2.7300    2.7400    2.7500    2.7600    2.7700    2.7800    2.7900
2.8000    2.8100    2.8200    2.8300    2.8400    2.8500    2.8600    2.8700
2.8800    2.8900    2.9000    2.9100    2.9200    2.9300    2.9400    2.9500
2.9600    2.9700    2.9800    2.9900    3.0000    3.0100    3.0200    3.0300
3.0400    3.0500    3.0600    3.0700    3.0800    3.0900    3.1000    3.1100
3.1200    3.1300    3.1400    3.1500    3.1600    3.1700    3.1800    3.1900
3.2000    3.2100    3.2200    3.2300    3.2400    3.2500    3.2600    3.2700
3.2800    3.2900    3.3000    3.3100    3.3200    3.3300    3.3400    3.3500
3.3600    3.3700    3.3800    3.3900    3.4000    3.4100    3.4200    3.4300
3.4400    3.4500    3.4600    3.4700    3.4800    3.4900    3.5000    3.5100
3.5200    3.5300    3.5400    3.5500    3.5600    3.5700    3.5800    3.5900
3.6000    3.6100    3.6200    3.6300    3.6400    3.6500    3.6600    3.6700
3.6800    3.6900    3.7000    3.7100    3.7200    3.7300    3.7400    3.7500
3.7600    3.7700    3.7800    3.7900    3.8000    3.8100    3.8200    3.8300
3.8400    3.8500    3.8600    3.8700    3.8800    3.8900    3.9000    3.9100
3.9200    3.9300    3.9400    3.9500    3.9600    3.9700    3.9800    3.9900
4.0000    4.0100    4.0200    4.0300    4.0400    4.0500    4.0600    4.0700
4.0800    4.0900    4.1000    4.1100    4.1200    4.1300    4.1400    4.1500
4.1600    4.1700    4.1800    4.1900    4.2000    4.2100    4.2200    4.2300
4.2400    4.2500    4.2600    4.2700    4.2800    4.2900    4.3000    4.3100
4.3200    4.3300    4.3400    4.3500    4.3600    4.3700    4.3800    4.3900
4.4000    4.4100    4.4200    4.4300    4.4400    4.4500    4.4600    4.4700
4.4800    4.4900    4.5000    4.5100    4.5200    4.5300    4.5400    4.5500
4.5600    4.5700    4.5800    4.5900    4.6000    4.6100    4.6200    4.6300
4.6400    4.6500    4.6600    4.6700    4.6800    4.6900    4.7000    4.7100
4.7200    4.7300    4.7400    4.7500    4.7600    4.7700    4.7800    4.7900
4.8000    4.8100    4.8200    4.8300    4.8400    4.8500    4.8600    4.8700
4.8800    4.8900    4.9000    4.9100    4.9200    4.9300    4.9400    4.9500
4.9600    4.9700    4.9800    4.9900    5.0000    5.0100    5.0200    5.0300
5.0400    5.0500    5.0600    5.0700    5.0800    5.0900    5.1000    5.1100
5.1200    5.1300    5.1400    5.1500    5.1600    5.1700    5.1800    5.1900
5.2000    5.2100    5.2200    5.2300    5.2400    5.2500    5.2600    5.2700
5.2800    5.2900    5.3000    5.3100    5.3200    5.3300    5.3400    5.3500
5.3600    5.3700    5.3800    5.3900    5.4000    5.4100    5.4200    5.4300
5.4400    5.4500    5.4600    5.4700    5.4800    5.4900    5.5000    5.5100
5.5200    5.5300    5.5400    5.5500    5.5600    5.5700    5.5800    5.5900
5.6000    5.6100    5.6200    5.6300    5.6400    5.6500    5.6600    5.6700
5.6800    5.6900    5.7000    5.7100    5.7200    5.7300    5.7400    5.7500
5.7600    5.7700    5.7800    5.7900    5.8000    5.8100    5.8200    5.8300
5.8400    5.8500    5.8600    5.8700    5.8800    5.8900    5.9000    5.9100
5.9200    5.9300    5.9400    5.9500    5.9600    5.9700    5.9800    5.9900
</PP_R>
<PP_RAB type="real"  size="600" columns="8">
0.0100    0.0100    0.0100    0.0100    0.0100    0.0100    0.0100    0.0100
0.0100    0.0100    0.0100    0.0100    0.0100    0.0100    0.0100    0.0100
0.0100    0.0100    0.0100    0.0100    0.0100    0.0100    0.0100    0.0100
0.0100    0.0100    0.0100    0.0100    0.0100    0.0100    0.0100    0.0100
0.0100    0.0100    0.0100    0.0100    0.0100    0.0100    0.0100    0.0100
0.0100    0.0100    0.0100    0.0100    0.0100    0.0100    0.0100    0.0100
0.0100    0.0100    0.0100    0.0100    0.0100    0.0100    0.0100    0.0100
0.0100    0.0100    0.0100    0.0100    0.0100    0.0100    0.0100    0.0100
0.0100    0.0100    0.0100    0.0100    0.0100    0.0100    0.0100    0.0100
0.0100    0.0100    0.0100    0.0100    0.0100    0.0100    0.0100    0.0100
0.0100    0.0100    0.0100    0.0100    0.0100    0.0100    0.0100    0.0100
0.0100    0.0100    0.0100    0.0100    0.0100    0.0100    0.0100    0.0100
0.0100    0.0100    0.0100    0.0100    0.0100    0.0100    0.0100    0.0100
0.0100    0.0100    0.0100    0.0100    0.0100    0.0100    0.0100    0.0100
0.0100    0.0100    0.0100    0.0100    0.0100    0.0100    0.0100    0.0100
0.0100    0.0100    0.0100    0.0100    0.0100    0.0100    0.0100    0.0100
0.0100    0.0100    0.0100    0.0100    0.0100    0.0100    0.0100    0.0100
0.0100    0.0100    0.0100    0.0100    0.0100    0.0100    0.0100    0.0100
0.0100    0.0100    0.0100    0.0100    0.0100    0.0100    0.0100    0.0100
0.0100    0.0100    0.0100    0.0100    0.0100    0.0100    0.0100    0.0100
0.0100    0.0100    0.0100    0.0100    0.0100    0.0100    0.0100    0.0100
0.0100    0.0100    0.0100    0.0100    0.0100    0.0100    0.0100    0.0100
0.0100    0.0100    0.0100    0.0100    0.0100    0.0100    0.0100    0.0100
0.0100    0.0100    0.0100    0.0100    0.0100    0.0100    0.0100    0.0100
0.0100    0.0100    0.0100    0.0100    0.0100    0.0100    0.0100    0.0100
0.0100    0.0100    0.0100    0.0100    0.0100    0.0100    0.0100    0.0100
0.0100    0.0100    0.0100    0.0100    0.0100    0.0100    0.0100    0.0100
0.0100    0.0100    0.0100    0.0100    0.0100    0.0100    0.0100    0.0100
0.0100    0.0100    0.0100    0.0100    0.0100    0.0100    0.0100    0.0100
0.0100    0.0100    0.0100    0.0100    0.0100    0.0100    0.0100    0.0100
0.0100    0.0100    0.0100    0.0100    0.0100    0.0100    0.0100    0.0100
0.0100    0.0100    0.0100    0.0100    0.0100    0.0100    0.0100    0.0100
0.0100    0.0100    0.0100    0.0100    0.0100    0.0100    0.0100    0.0100
0.0100    0.0100    0.0100    0.0100    0.0100    0.0100    0.0100    0.0100
0.0100    0.0100    0.0100    0.0100    0.0100    0.0100    0.0100    0.0100
0.0100    0.0100    0.0100    0.0100    0.0100    0.0100    0.0100    0.0100
0.0100    0.0100    0.0100    0.0100    0.0100    0.0100    0.0100    0.0100
0.0100    0.0100    0.0100    0.0100    0.0100    0.0100    0.0100    0.0100
0.0100    0.0100    0.0100    0.0100    0.0100    0.0100    0.0100    0.0100
0.0100    0.0100    0.0100    0.0100    0.0100    0.0100    0.0100    0.0100
0.0100    0.0100    0.0100    0.0100    0.0100    0.0100    0.0100    0.0100
0.0100    0.0100    0.0100    0.0100    0.0100    0.0100    0.0100    0.0100
0.0100    0.0100    0.0100    0.0100    0.0100    0.0100    0.0100    0.0100
0.0100    0.0100    0.0100    0.0100    0.0100    0.0100    0.0100    0.0100
0.0100    0.0100    0.0100    0.0100    0.0100    0.0100    0.0100    0.0100
0.0100    0.0100    0.0100    0.0100    0.0100    0.0100    0.0100    0.0100
0.0100    0.0100    0.0100    0.0100    0.0100    0.0100    0.0100    0.0100
0.0100    0.0100    0.0100    0.0100    0.0100    0.0100    0.0100    0.0100
0.0100    0.0100    0.0100    0.0100    0.0100    0.0100    0.0100    0.0100
0.0100    0.0100    0.0100    0.0100    0.0100    0.0100    0.0100    0.0100
0.0100    0.0100    0.0100    0.0100    0.0100    0.0100    0.0100    0.0100
0.0100    0.0100    0.0100    0.0100    0.0100    0.0100    0.0100    0.0100
0.0100    0.0100    0.0100    0.0100    0.0100    0.0100    0.0100    0.0100
0.0100    0.0100    0.0100    0.0100    0.0100    0.0100    0.0100    0.0100
0.0100    0.0100    0.0100    0.0100    0.0100    0.0100    0.0100    0.0100
0.0100    0.0100    0.0100    0.0100    0.0100    0.0100    0.0100    0.0100
0.0100    0.0100    0.0100    0.0100    0.0100    0.0100    0.0100    0.0100
0.0100    0.0100    0.0100    0.0100    0.0100    0.0100    0.0100    0.0100
0.0100    0.0100    0.0100    0.0100    0.0100    0.0100    0.0100    0.0100
0.0100    0.0100    0.0100    0.0100    0.0100    0.0100    0.0100    0.0100
0.0100    0.0100    0.0100    0.0100    0.0100    0.0100    0.0100    0.0100
0.0100    0.0100    0.0100    0.0100    0.0100    0.0100    0.0100    0.0100
0.0100    0.0100    0.0100    0.0100    0.0100    0.0100    0.0100    0.0100
0.0100    0.0100    0.0100    0.0100    0.0100    0.0100    0.0100    0.0100
0.0100    0.0100    0.0100    0.0100    0.0100    0.0100    0.0100    0.0100
0.0100    0.0100    0.0100    0.0100    0.0100    0.0100    0.0100    0.0100
0.0100    0.0100    0.0100    0.0100    0.0100    0.0100    0.0100    0.0100
0.0100    0.0100    0.0100    0.0100    0.0100    0.0100    0.0100    0.0100
0.0100    0.0100    0.0100    0.0100    0.0100    0.0100    0.0100    0.0100
0.0100    0.0100    0.0100    0.0100    0.0100    0.0100    0.0100    0.0100
0.0100    0.0100    0.0100    0.0100    0.0100    0.0100    0.0100    0.0100
0.0100    0.0100    0.0100    0.0100    0.0100    0.0100    0.0100    0.0100
0.0100    0.0100    0.0100    0.0100    0.0100    0.0100    0.0100    0.0100
0.0100    0.0100    0.0100    0.0100    0.0100    0.0100    0.0100    0.0100
0.0100    0.0100    0.0100    0.0100    0.0100    0.0100    0.0100    0.0100
</PP_RAB>
</PP_MESH>
<PP_LOCAL type="real"  size="600" columns="4">
-3.4959025519E+01   -3.4957901344E+01   -3.4954528827E+01   -3.4948908075E+01
-3.4941039259E+01   -3.4930922616E+01   -3.4918558456E+01   -3.4903947159E+01
-3.4887089180E+01   -3.4867985053E+01   -3.4846635387E+01   -3.4823040880E+01
-3.4797202314E+01   -3.4769120565E+01   -3.4738796608E+01   -3.4706231522E+01
-3.4671426495E+01   -3.4634382836E+01   -3.4595101981E+01   -3.4553585502E+01
-3.4509835118E+01   -3.4463852706E+01   -3.4415640314E+01   -3.4365200172E+01
-3.4312534708E+01   -3.4257646564E+01   -3.4200538609E+01   -3.4141213958E+01
-3.4079675993E+01   -3.4015928378E+01   -3.3949975082E+01   -3.3881820398E+01
-3.3811468968E+01   -3.3738925806E+01   -3.3664196320E+01   -3.3587286336E+01
-3.3508202128E+01   -3.3426950439E+01   -3.3343538511E+01   -3.3257974111E+01
-3.3170265558E+01   -3.3080421751E+01   -3.2988452198E+01   -3.2894367045E+01
-3.2798177098E+01   -3.2699893862E+01   -3.2599529557E+01   -3.2497097154E+01
-3.2392610401E+01   -3.2286083847E+01   -3.2177532870E+01   -3.2066973703E+01
-3.1954423461E+01   -3.1839900163E+01   -3.1723422755E+01   -3.1605011138E+01
-3.1484686184E+01   -3.1362469759E+01   -3.1238384747E+01   -3.1112455061E+01
-3.0984705670E+01   -3.0855162606E+01   -3.0723852987E+01   -3.0590805026E+01
-3.0456048045E+01   -3.0319612484E+01   -3.0181529914E+01   -3.0041833038E+01
-2.9900555700E+01   -2.9757732891E+01   -2.9613400742E+01   -2.9467596529E+01
-2.9320358668E+01   -2.9171726708E+01   -2.9021741321E+01   -2.8870444292E+01
-2.8717878502E+01   -2.8564087912E+01   -2.8409117543E+01   -2.8253013447E+01
-2.8095822684E+01   -2.7937593287E+01   -2.7778374232E+01   -2.7618215396E+01
-2.7457167518E+01   -2.7295282153E+01   -2.7132611626E+01   -2.6969208979E+01
-2.6805127919E+01   -2.6640422760E+01   -2.6475148364E+01   -2.6309360082E+01
-2.6143113684E+01   -2.5976465301E+01   -2.5809471350E+01   -2.5642188473E+01
-2.5474673460E+01   -2.5306983187E+01   -2.5139174534E+01   -2.4971304324E+01
-2.4803429246E+01   -2.4635605785E+01   -2.4467890151E+01   -2.4300338211E+01
-2.4133005417E+01   -2.3965946738E+01   -2.3799216593E+01   -2.3632868787E+01
-2.3466956441E+01   -2.3301531932E+01   -2.3136646831E+01   -2.2972351839E+01
-2.2808696727E+01   -2.2645730281E+01   -2.2483500242E+01   -2.2322053251E+01
-2.2161434792E+01   -2.2001689143E+01   -2.1842859321E+01   -2.1684987031E+01
-2.1528112619E+01   -2.1372275021E+01   -2.1217511720E+01   -2.1063858700E+01
-2.0911350402E+01   -2.0760019686E+01   -2.0609897791E+01   -2.0461014301E+01
-2.0313397109E+01   -2.0167072393E+01   -2.0022064583E+01   -1.9878396345E+01
-1.9736088560E+01   -1.9595160311E+01   -1.9455628873E+01   -1.9317509714E+01
-1.9180816489E+01   -1.9045561053E+01   -1.8911753470E+01   -1.8779402030E+01
-1.8648513269E+01   -1.8519091998E+01   -1.8391141328E+01   -1.8264662705E+01
-1.8139655944E+01   -1.8016119260E+01   -1.7894049307E+01   -1.7773441212E+01
-1.7654288598E+01   -1.7536583617E+01   -1.7420316967E+01   -1.7305477905E+01
-1.7192054255E+01   -1.7080032398E+01   -1.6969397265E+01   -1.6860132307E+01
-1.6752219460E+01   -1.6645639105E+01   -1.6540369995E+01   -1.6436389235E+01
-1.6333672244E+01   -1.6232192319E+01   -1.6131921018E+01   -1.6032829125E+01
-1.5934887304E+01   -1.5838067305E+01   -1.5742341783E+01   -1.5647683844E+01
-1.5554067469E+01   -1.5461466305E+01   -1.5369857085E+01   -1.5279222887E+01
-1.5189553234E+01   -1.5100851691E+01   -1.5013126719E+01   -1.4926368060E+01
-1.4840551459E+01   -1.4755657404E+01   -1.4671672151E+01   -1.4588581558E+01
-1.4506371219E+01   -1.4425027527E+01   -1.4344537184E+01   -1.4264887405E+01
-1.4186066037E+01   -1.4108061432E+01   -1.4030862420E+01   -1.3954458316E+01
-1.3878838908E+01   -1.3803994430E+01   -1.3729915540E+01   -1.3656593293E+01
-1.3584019112E+01   -1.3512184758E+01   -1.3441082296E+01   -1.3370704064E+01
-1.3301042635E+01   -1.3232090785E+01   -1.3163841455E+01   -1.3096287725E+01
-1.3029422773E+01   -1.2963239850E+01   -1.2897732248E+01   -1.2832893274E+01
-1.2768716226E+01   -1.2705194372E+01   -1.2642320930E+01   -1.2580089047E+01
-1.2518491796E+01   -1.2457522153E+01   -1.2397172997E+01   -1.2337437101E+01
-1.2278307129E+01   -1.2219775634E+01   -1.2161835061E+01   -1.2104477751E+01
-1.2047695943E+01   -1.1991481782E+01   -1.1935827328E+01   -1.1880724566E+01
-1.1826165413E+01   -1.1772141736E+01   -1.1718645356E+01   -1.1665668071E+01
-1.1613201660E+01   -1.1561237904E+01   -1.1509768597E+01   -1.1458785561E+01
-1.1408280660E+01   -1.1358245815E+01   -1.1308673017E+01   -1.1259554341E+01
-1.1210881961E+01   -1.1162648158E+01   -1.1114845337E+01   -1.1067466035E+01
-1.1020502934E+01   -1.0973948868E+01   -1.0927796835E+01   -1.0882040001E+01
-1.0836671712E+01   -1.0791685493E+01   -1.0747075061E+01   -1.0702834321E+01
-1.0658957374E+01   -1.0615438516E+01   -1.0572272239E+01   -1.0529453232E+01
-1.0486976378E+01   -1.0444836751E+01   -1.0403029615E+01   -1.0361550417E+01
-1.0320394785E+01   -1.0279558521E+01   -1.0239037593E+01   -1.0198828130E+01
-1.0158926417E+01   -1.0119328881E+01   -1.0080032090E+01   -1.0041032738E+01
-1.0002327641E+01   -9.9639137303E+00   -9.9257880363E+00   -9.8879476873E+00
-9.8503898980E+00   -9.8131119614E+00   -9.7761112413E+00   -9.7393851647E+00
-9.7029312139E+00   -9.6667469196E+00   -9.6308298547E+00   -9.5951776276E+00
-9.5597878763E+00   -9.5246582635E+00   -9.4897864712E+00   -9.4551701966E+00
-9.4208071475E+00   -9.3866950395E+00   -9.3528315924E+00   -9.3192145274E+00
-9.2858415653E+00   -9.2527104242E+00   -9.2198188186E+00   -9.1871644575E+00
-9.1547450448E+00   -9.1225582780E+00   -9.0906018487E+00   -9.0588734427E+00
-9.0273707408E+00   -8.9960914192E+00   -8.9650331509E+00   -8.9341936069E+00
-8.9035704577E+00   -8.8731613748E+00   -8.8429640326E+00   -8.8129761101E+00
-8.7831952932E+00   -8.7536192765E+00   -8.7242457655E+00   -8.6950724790E+00
-8.6660971507E+00   -8.6373175317E+00   -8.6087313929E+00   -8.5803365265E+00
-8.5521307485E+00   -8.5241119003E+00   -8.4962778509E+00   -8.4686264984E+00
-8.4411557717E+00   -8.4138636321E+00   -8.3867480746E+00   -8.3598071293E+00
-8.3330388621E+00   -8.3064413761E+00   -8.2800128122E+00   -8.2537513497E+00
-8.2276552065E+00   -8.2017226403E+00   -8.1759519474E+00   -8.1503414640E+00
-8.1248895649E+00   -8.0995946642E+00   -8.0744552140E+00   -8.0494697042E+00
-8.0246366619E+00   -7.9999546500E+00   -7.9754222668E+00   -7.9510381445E+00
-7.9268009483E+00   -7.9027093751E+00   -7.8787621519E+00   -7.8549580346E+00
-7.8312958065E+00   -7.8077742770E+00   -7.7843922795E+00   -7.7611486706E+00
-7.7380423277E+00   -7.7150721484E+00   -7.6922370479E+00   -7.6695359583E+00
-7.6469678267E+00   -7.6245316139E+00   -7.6022262927E+00   -7.5800508472E+00
-7.5580042708E+00   -7.5360855652E+00   -7.5142937397E+00   -7.4926278098E+00
-7.4710867961E+00   -7.4496697237E+00   -7.4283756215E+00   -7.4072035216E+00
-7.3861524582E+00   -7.3652214678E+00   -7.3444095884E+00   -7.3237158597E+00
-7.3031393225E+00   -7.2826790187E+00   -7.2623339916E+00   -7.2421032858E+00
-7.2219859474E+00   -7.2019810242E+00   -7.1820875664E+00   -7.1623046264E+00
-7.1426312598E+00   -7.1230665256E+00   -7.1036094868E+00   -7.0842592109E+00
-7.0650147707E+00   -7.0458752446E+00   -7.0268397177E+00   -7.0079072819E+00
-6.9890770368E+00   -6.9703480901E+00   -6.9517195587E+00   -6.9331905687E+00
-6.9147602562E+00   -6.8964277676E+00   -6.8781922603E+00   -6.8600529033E+00
-6.8420088771E+00   -6.8240593739E+00   -6.8062035976E+00   -6.7884407671E+00
-6.7707701127E+00   -6.7531908772E+00   -6.7357023320E+00   -6.7183037388E+00
-6.7009943515E+00   -6.6837734570E+00   -6.6666403615E+00   -6.6495942243E+00
-6.6326345990E+00   -6.6157609337E+00   -6.5989726348E+00   -6.5822691852E+00
-6.5656501895E+00   -6.5491142755E+00   -6.5326605021E+00   -6.5162879790E+00
-6.4999955175E+00   -6.4837825503E+00   -6.4676493602E+00   -6.4515958661E+00
-6.4356220209E+00   -6.4197282098E+00   -6.4039138749E+00   -6.3881782501E+00
-6.3725207039E+00   -6.3569405278E+00   -6.3414368139E+00   -6.3260089490E+00
-6.3106562529E+00   -6.2953780235E+00   -6.2801735839E+00   -6.2650421717E+00
-6.2499833332E+00   -6.2349965654E+00   -6.2200813826E+00   -6.2052373196E+00
-6.1904640325E+00   -6.1757609281E+00   -6.1611275023E+00   -6.1465632582E+00
-6.1320676989E+00   -6.1176403020E+00   -6.1032806106E+00   -6.0889881518E+00
-6.0747624548E+00   -6.0606030533E+00   -6.0465094867E+00   -6.0324812961E+00
-6.0185180276E+00   -6.0046192315E+00   -5.9907844624E+00   -5.9770132792E+00
-5.9633052444E+00   -5.9496599249E+00   -5.9360768915E+00   -5.9225557187E+00
-5.9090959851E+00   -5.8956972730E+00   -5.8823591686E+00   -5.8690812616E+00
-5.8558631458E+00   -5.8427044182E+00   -5.8296046798E+00   -5.8165635348E+00
-5.8035805914E+00   -5.7906554609E+00   -5.7777877581E+00   -5.7649771015E+00
-5.7522231127E+00   -5.7395254167E+00   -5.7268836418E+00   -5.7142974197E+00
-5.7017663852E+00   -5.6892901763E+00   -5.6768684341E+00   -5.6645008031E+00
-5.6521869306E+00   -5.6399264670E+00   -5.6277190659E+00   -5.6155643837E+00
-5.6034620799E+00   -5.5914118168E+00   -5.5794132597E+00   -5.5674660768E+00
-5.5555699390E+00   -5.5437245200E+00   -5.5319294963E+00   -5.5201845474E+00
-5.5084893552E+00   -5.4968436043E+00   -5.4852469821E+00   -5.4736991786E+00
-5.4621998863E+00   -5.4507488005E+00   -5.4393456188E+00   -5.4279900413E+00
-5.4166817709E+00   -5.4054205128E+00   -5.3942059745E+00   -5.3830378660E+00
-5.3719158999E+00   -5.3608397910E+00   -5.3498092563E+00   -5.3388240153E+00
-5.3278837899E+00   -5.3169883040E+00   -5.3061372840E+00   -5.2953304583E+00
-5.2845675577E+00   -5.2738483150E+00   -5.2631724653E+00   -5.2525397459E+00
-5.2419498960E+00   -5.2314026570E+00   -5.2208977723E+00   -5.2104349877E+00
-5.2000140505E+00   -5.1896347103E+00   -5.1792967189E+00   -5.1689998295E+00
-5.1587437979E+00   -5.1485283813E+00   -5.1383533391E+00   -5.1282184326E+00
-5.1181234248E+00   -5.1080680808E+00   -5.0980521673E+00   -5.0880754530E+00
-5.0781377083E+00   -5.0682387055E+00   -5.0583782184E+00   -5.0485560230E+00
-5.0387718965E+00   -5.0290256183E+00   -5.0193169693E+00   -5.0096457320E+00
-5.0000116907E+00   -4.9904146312E+00   -4.9808543412E+00   -4.9713306099E+00
-4.9618432279E+00   -4.9523919876E+00   -4.9429766831E+00   -4.9335971098E+00
-4.9242530647E+00   -4.9149443465E+00   -4.9056707552E+00   -4.8964320925E+00
-4.8872281614E+00   -4.8780587666E+00   -4.8689237140E+00   -4.8598228111E+00
-4.8507558669E+00   -4.8417226916E+00   -4.8327230971E+00   -4.8237568965E+00
-4.8148239042E+00   -4.8059239363E+00   -4.7970568098E+00   -4.7882223435E+00
-4.7794203573E+00   -4.7706506724E+00   -4.7619131113E+00   -4.7532074979E+00
-4.7445336574E+00   -4.7358914161E+00   -4.7272806017E+00   -4.7187010431E+00
-4.7101525706E+00   -4.7016350154E+00   -4.6931482102E+00   -4.6846919887E+00
-4.6762661861E+00   -4.6678706384E+00   -4.6595051830E+00   -4.6511696584E+00
-4.6428639044E+00   -4.6345877616E+00   -4.6263410722E+00   -4.6181236790E+00
-4.6099354264E+00   -4.6017761595E+00   -4.5936457249E+00   -4.5855439698E+00
-4.5774707429E+00   -4.5694258938E+00   -4.5614092730E+00   -4.5534207324E+00
-4.5454601245E+00   -4.5375273033E+00   -4.5296221234E+00   -4.5217444407E+00
-4.5138941119E+00   -4.5060709948E+00   -4.4982749482E+00   -4.4905058318E+00
-4.4827635063E+00   -4.4750478335E+00   -4.4673586758E+00   -4.4596958969E+00
-4.4520593612E+00   -4.4444489342E+00   -4.4368644822E+00   -4.4293058725E+00
-4.4217729732E+00   -4.4142656533E+00   -4.4067837827E+00   -4.3993272324E+00
-4.3918958739E+00   -4.3844895799E+00   -4.3771082236E+00   -4.3697516795E+00
-4.3624198225E+00   -4.3551125286E+00   -4.3478296747E+00   -4.3405711382E+00
</PP_LOCAL>
<PP_NONLOCAL>
<PP_BETA.1
type="real"
size="600"
columns="4"
index="1"
angular_momentum="0"
cutoff_radius_index=" 232"
cutoff_radius="    2.3100000000E+00" >
-2.3606994137E-10    6.3939484581E-02    1.2773685623E-01    1.9125067507E-01
2.5434084147E-01    3.1686925160E-01    3.7870043563E-01    4.3970217308E-01
4.9974608015E-01    5.5870816387E-01    6.1646933867E-01    6.7291590090E-01
7.2793995774E-01    7.8143980687E-01    8.3332026438E-01    8.8349293841E-01
9.3187644691E-01    9.7839657830E-01    1.0229863945E+00    1.0655862765E+00
1.1061439127E+00    1.1446142318E+00    1.1809592815E+00    1.2151480561E+00
1.2471562746E+00    1.2769661143E+00    1.3045659024E+00    1.3299497709E+00
1.3531172782E+00    1.3740730043E+00    1.3928261225E+00    1.4093899552E+00
1.4237815177E+00    1.4360210574E+00    1.4461315925E+00    1.4541384569E+00
1.4600688572E+00    1.4639514458E+00    1.4658159170E+00    1.4656926305E+00
1.4636122660E+00    1.4596055149E+00    1.4537028107E+00    1.4459341040E+00
1.4363286821E+00    1.4249150378E+00    1.4117207870E+00    1.3967726384E+00
1.3800964126E+00    1.3617171132E+00    1.3416590477E+00    1.3199459958E+00
1.2966014250E+00    1.2716487481E+00    1.2451116216E+00    1.2170142793E+00
1.1873818975E+00    1.1562409859E+00    1.1236198004E+00    1.0895487703E+00
1.0540609349E+00    1.0171923823E+00    9.7898268566E-01    9.3947532749E-01
8.9871810827E-01    8.5676353075E-01    8.1366915447E-01    7.6949791392E-01
7.2431839434E-01    6.7820505956E-01    6.3123842659E-01    5.8350518228E-01
5.3509823767E-01    4.8611671657E-01    4.3666587534E-01    3.8685695151E-01
3.3680693987E-01    2.8663829509E-01    2.3647856111E-01    1.8645992787E-01
1.3671871727E-01    8.7394800700E-02    3.8630951460E-02   -9.4278638762E-03
-5.6635250326E-02   -1.0284420004E-01   -1.4790795232E-01   -1.9168089118E-01
-2.3401947310E-01   -2.7478317706E-01   -3.1383546835E-01   -3.5104476763E-01
-3.8628541613E-01   -4.1943862788E-01   -4.5039341977E-01   -4.7904751008E-01
-5.0530817646E-01   -5.2909306435E-01   -5.5033093718E-01   -5.6896236016E-01
-5.8494030969E-01   -5.9823070142E-01   -6.0881283005E-01   -6.1667971532E-01
-6.2183834884E-01   -6.2430983771E-01   -6.2412944159E-01   -6.2134650086E-01
-6.1602425448E-01   -6.0823954729E-01   -5.9808242743E-01   -5.8565563575E-01
-5.7107398988E-01   -5.5446366693E-01   -5.3596138968E-01   -5.1571352207E-01
-4.9387508087E-01   -4.7060867104E-01   -4.4608335332E-01   -4.2047345339E-01
-3.9395732219E-01   -3.6671605801E-01   -3.3893220126E-01   -3.1078841304E-01
-2.8246614913E-01   -2.5414434107E-01   -2.2599809587E-01   -1.9819742623E-01
-1.7090602243E-01   -1.4428007703E-01   -1.1846717333E-01   -9.3605247313E-02
-6.9821632734E-02   -4.7232198496E-02   -2.5940585488E-02   -6.0375505107E-03
1.2399576559E-02    2.9307318532E-02    4.4636353956E-02    5.8351696272E-02
7.0432747296E-02    8.0873223512E-02    8.9680958481E-02    9.6877580942E-02
1.0249807388E-01    1.0659021874E-01    1.0921392920E-01    1.1044048413E-01
1.1035166396E-01    1.0903880279E-01    1.0660176345E-01    1.0314784720E-01
9.8790649157E-02    9.3648870578E-02    8.7845101289E-02    8.1504583670E-02
7.4753973983E-02    6.7720103391E-02    6.0528784476E-02    5.3303580342E-02
4.6164627235E-02    3.9227996650E-02    3.2604124339E-02    2.6395630254E-02
2.0695472385E-02    1.5584750191E-02    1.1134894005E-02    7.3931883626E-03
4.3849431202E-03    2.1886650306E-03    8.5792360283E-04    2.2709528198E-04
1.2746588947E-05   -8.5619934761E-06    9.1918837906E-06    6.2959585388E-06
-1.0079638822E-06   -9.8411911308E-07   -2.6716666707E-07   -3.0631046583E-07
0.0000000000E+00    0.0000000000E+00    0.0000000000E+00    0.0000000000E+00
0.0000000000E+00    0.0000000000E+00    0.0000000000E+00    0.0000000000E+00
0.0000000000E+00    0.0000000000E+00    0.0000000000E+00    0.0000000000E+00
0.0000000000E+00    0.0000000000E+00    0.0000000000E+00    0.0000000000E+00
0.0000000000E+00    0.0000000000E+00    0.0000000000E+00    0.0000000000E+00
0.0000000000E+00    0.0000000000E+00    0.0000000000E+00    0.0000000000E+00