<UPF version="2.0.1">
<PP_INFO>
NOTE!!!!
This file is trimmed with a mesh size of 600 from the original version.
Trimming performed at 2023-03-31 09:10:04.994969 by trim_upf.py version 0.1.0

This pseudopotential file has been produced using the code
ONCVPSP  (Optimized Norm-Conservinng Vanderbilt PSeudopotential)
scalar-relativistic version 3.3.0 08/16/2017 by D. R. Hamann
The code is available through a link at URL www.mat-simresearch.com.
Documentation with the package provides a full discription of the
input data below.
While it is not required under the terms of the GNU GPL, it is
suggested that you cite D. R. Hamann, Phys. Rev. B 88, 085117 (2013)
in any publication using these pseudopotentials.
<PP_INPUTFILE>
# ATOM AND REFERENCE CONFIGURATION
# atsym  z   nc   nv     iexc    psfile
Tc 43.00    6    4       4      upf
#
#   n    l    f        energy (Ha)
1    0    2.00
2    0    2.00
2    1    6.00
3    0    2.00
3    1    6.00
3    2   10.00
4    0    2.00
4    1    6.00
4    2    5.00
5    0    2.00
#
# PSEUDOPOTENTIAL AND OPTIMIZATION
# lmax
2
#
#   l,   rc,      ep,       ncon, nbas, qcut
0   1.40000  -2.69665    4    8   8.40000
1   1.40000  -1.66632    4    8   9.00000
2   1.35000  -0.24483    4    8   9.20000
#
# LOCAL POTENTIAL
# lloc, lpopt,  rc(5),   dvloc0
4    5   1.20000      0.00000
#
# VANDERBILT-KLEINMAN-BYLANDER PROJECTORs
# l, nproj, debl
0    2   2.51131
1    2   2.00000
2    2   1.50000
#
# MODEL CORE CHARGE
# icmod, fcfact, rcfact
3   5.00000   1.28000
#
# LOG DERIVATIVE ANALYSIS
# epsh1, epsh2, depsh
-12.00   12.00    0.02
#
# OUTPUT GRID
# rlmax, drl
6.00    0.01
#
# TEST CONFIGURATIONS
# ncnf
0
# nvcnf
#   n    l    f
</PP_INPUTFILE>
</PP_INFO>
<!--                               -->
<!-- END OF HUMAN READABLE SECTION -->
<!--                               -->
<PP_HEADER
generated="Generated using ONCVPSP code by D. R. Hamann"
author="anonymous"
date="171031"
comment=""
element="Tc"
pseudo_type="NC"
relativistic="scalar"
is_ultrasoft="F"
is_paw="F"
is_coulomb="F"
has_so="F"
has_wfc="F"
has_gipaw="F"
core_correction="T"
functional="PBE"
z_valence="   15.00"
total_psenergy="  -1.61449650139E+02"
rho_cutoff="   1.49100000000E+01"
l_max="2"
l_local="-1"
mesh_size="   600"
number_of_wfc="4"
number_of_proj="6"/>
<PP_MESH>
<PP_R type="real"  size="600" columns="8">
0.0000    0.0100    0.0200    0.0300    0.0400    0.0500    0.0600    0.0700
0.0800    0.0900    0.1000    0.1100    0.1200    0.1300    0.1400    0.1500
0.1600    0.1700    0.1800    0.1900    0.2000    0.2100    0.2200    0.2300
0.2400    0.2500    0.2600    0.2700    0.2800    0.2900    0.3000    0.3100
0.3200    0.3300    0.3400    0.3500    0.3600    0.3700    0.3800    0.3900
0.4000    0.4100    0.4200    0.4300    0.4400    0.4500    0.4600    0.4700
0.4800    0.4900    0.5000    0.5100    0.5200    0.5300    0.5400    0.5500
0.5600    0.5700    0.5800    0.5900    0.6000    0.6100    0.6200    0.6300
0.6400    0.6500    0.6600    0.6700    0.6800    0.6900    0.7000    0.7100
0.7200    0.7300    0.7400    0.7500    0.7600    0.7700    0.7800    0.7900
0.8000    0.8100    0.8200    0.8300    0.8400    0.8500    0.8600    0.8700
0.8800    0.8900    0.9000    0.9100    0.9200    0.9300    0.9400    0.9500
0.9600    0.9700    0.9800    0.9900    1.0000    1.0100    1.0200    1.0300
1.0400    1.0500    1.0600    1.0700    1.0800    1.0900    1.1000    1.1100
1.1200    1.1300    1.1400    1.1500    1.1600    1.1700    1.1800    1.1900
1.2000    1.2100    1.2200    1.2300    1.2400    1.2500    1.2600    1.2700
1.2800    1.2900    1.3000    1.3100    1.3200    1.3300    1.3400    1.3500
1.3600    1.3700    1.3800    1.3900    1.4000    1.4100    1.4200    1.4300
1.4400    1.4500    1.4600    1.4700    1.4800    1.4900    1.5000    1.5100
1.5200    1.5300    1.5400    1.5500    1.5600    1.5700    1.5800    1.5900
1.6000    1.6100    1.6200    1.6300    1.6400    1.6500    1.6600    1.6700
1.6800    1.6900    1.7000    1.7100    1.7200    1.7300    1.7400    1.7500
1.7600    1.7700    1.7800    1.7900    1.8000    1.8100    1.8200    1.8300
1.8400    1.8500    1.8600    1.8700    1.8800    1.8900    1.9000    1.9100
1.9200    1.9300    1.9400    1.9500    1.9600    1.9700    1.9800    1.9900
2.0000    2.0100    2.0200    2.0300    2.0400    2.0500    2.0600    2.0700
2.0800    2.0900    2.1000    2.1100    2.1200    2.1300    2.1400    2.1500
2.1600    2.1700    2.1800    2.1900    2.2000    2.2100    2.2200    2.2300
2.2400    2.2500    2.2600    2.2700    2.2800    2.2900    2.3000    2.3100
2.3200    2.3300    2.3400    2.3500    2.3600    2.3700    2.3800    2.3900
2.4000    2.4100    2.4200    2.4300    2.4400    2.4500    2.4600    2.4700
2.4800    2.4900    2.5000    2.5100    2.5200    2.5300    2.5400    2.5500
2.5600    2.5700    2.5800    2.5900    2.6000    2.6100    2.6200    2.6300
2.6400    2.6500    2.6600    2.6700    2.6800    2.6900    2.7000    2.7100
2.7200    2.7300    2.7400    2.7500    2.7600    2.7700    2.7800    2.7900
2.8000    2.8100    2.8200    2.8300    2.8400    2.8500    2.8600    2.8700
2.8800    2.8900    2.9000    2.9100    2.9200    2.9300    2.9400    2.9500
2.9600    2.9700    2.9800    2.9900    3.0000    3.0100    3.0200    3.0300
3.0400    3.0500    3.0600    3.0700    3.0800    3.0900    3.1000    3.1100
3.1200    3.1300    3.1400    3.1500    3.1600    3.1700    3.1800    3.1900
3.2000    3.2100    3.2200    3.2300    3.2400    3.2500    3.2600    3.2700
3.2800    3.2900    3.3000    3.3100    3.3200    3.3300    3.3400    3.3500
3.3600    3.3700    3.3800    3.3900    3.4000    3.4100    3.4200    3.4300
3.4400    3.4500    3.4600    3.4700    3.4800    3.4900    3.5000    3.5100
3.5200    3.5300    3.5400    3.5500    3.5600    3.5700    3.5800    3.5900
3.6000    3.6100    3.6200    3.6300    3.6400    3.6500    3.6600    3.6700
3.6800    3.6900    3.7000    3.7100    3.7200    3.7300    3.7400    3.7500
3.7600    3.7700    3.7800    3.7900    3.8000    3.8100    3.8200    3.8300
3.8400    3.8500    3.8600    3.8700    3.8800    3.8900    3.9000    3.9100
3.9200    3.9300    3.9400    3.9500    3.9600    3.9700    3.9800    3.9900
4.0000    4.0100    4.0200    4.0300    4.0400    4.0500    4.0600    4.0700
4.0800    4.0900    4.1000    4.1100    4.1200    4.1300    4.1400    4.1500
4.1600    4.1700    4.1800    4.1900    4.2000    4.2100    4.2200    4.2300
4.2400    4.2500    4.2600    4.2700    4.2800    4.2900    4.3000    4.3100
4.3200    4.3300    4.3400    4.3500    4.3600    4.3700    4.3800    4.3900
4.4000    4.4100    4.4200    4.4300    4.4400    4.4500    4.4600    4.4700
4.4800    4.4900    4.5000    4.5100    4.5200    4.5300    4.5400    4.5500
4.5600    4.5700    4.5800    4.5900    4.6000    4.6100    4.6200    4.6300
4.6400    4.6500    4.6600    4.6700    4.6800    4.6900    4.7000    4.7100
4.7200    4.7300    4.7400    4.7500    4.7600    4.7700    4.7800    4.7900
4.8000    4.8100    4.8200    4.8300    4.8400    4.8500    4.8600    4.8700
4.8800    4.8900    4.9000    4.9100    4.9200    4.9300    4.9400    4.9500
4.9600    4.9700    4.9800    4.9900    5.0000    5.0100    5.0200    5.0300
5.0400    5.0500    5.0600    5.0700    5.0800    5.0900    5.1000    5.1100
5.1200    5.1300    5.1400    5.1500    5.1600    5.1700    5.1800    5.1900
5.2000    5.2100    5.2200    5.2300    5.2400    5.2500    5.2600    5.2700
5.2800    5.2900    5.3000    5.3100    5.3200    5.3300    5.3400    5.3500
5.3600    5.3700    5.3800    5.3900    5.4000    5.4100    5.4200    5.4300
5.4400    5.4500    5.4600    5.4700    5.4800    5.4900    5.5000    5.5100
5.5200    5.5300    5.5400    5.5500    5.5600    5.5700    5.5800    5.5900
5.6000    5.6100    5.6200    5.6300    5.6400    5.6500    5.6600    5.6700
5.6800    5.6900    5.7000    5.7100    5.7200    5.7300    5.7400    5.7500
5.7600    5.7700    5.7800    5.7900    5.8000    5.8100    5.8200    5.8300
5.8400    5.8500    5.8600    5.8700    5.8800    5.8900    5.9000    5.9100
5.9200    5.9300    5.9400    5.9500    5.9600    5.9700    5.9800    5.9900
</PP_R>
<PP_RAB type="real"  size="600" columns="8">
0.0100    0.0100    0.0100    0.0100    0.0100    0.0100    0.0100    0.0100
0.0100    0.0100    0.0100    0.0100    0.0100    0.0100    0.0100    0.0100
0.0100    0.0100    0.0100    0.0100    0.0100    0.0100    0.0100    0.0100
0.0100    0.0100    0.0100    0.0100    0.0100    0.0100    0.0100    0.0100
0.0100    0.0100    0.0100    0.0100    0.0100    0.0100    0.0100    0.0100
0.0100    0.0100    0.0100    0.0100    0.0100    0.0100    0.0100    0.0100
0.0100    0.0100    0.0100    0.0100    0.0100    0.0100    0.0100    0.0100
0.0100    0.0100    0.0100    0.0100    0.0100    0.0100    0.0100    0.0100
0.0100    0.0100    0.0100    0.0100    0.0100    0.0100    0.0100    0.0100
0.0100    0.0100    0.0100    0.0100    0.0100    0.0100    0.0100    0.0100
0.0100    0.0100    0.0100    0.0100    0.0100    0.0100    0.0100    0.0100
0.0100    0.0100    0.0100    0.0100    0.0100    0.0100    0.0100    0.0100
0.0100    0.0100    0.0100    0.0100    0.0100    0.0100    0.0100    0.0100
0.0100    0.0100    0.0100    0.0100    0.0100    0.0100    0.0100    0.0100
0.0100    0.0100    0.0100    0.0100    0.0100    0.0100    0.0100    0.0100
0.0100    0.0100    0.0100    0.0100    0.0100    0.0100    0.0100    0.0100
0.0100    0.0100    0.0100    0.0100    0.0100    0.0100    0.0100    0.0100
0.0100    0.0100    0.0100    0.0100    0.0100    0.0100    0.0100    0.0100
0.0100    0.0100    0.0100    0.0100    0.0100    0.0100    0.0100    0.0100
0.0100    0.0100    0.0100    0.0100    0.0100    0.0100    0.0100    0.0100
0.0100    0.0100    0.0100    0.0100    0.0100    0.0100    0.0100    0.0100
0.0100    0.0100    0.0100    0.0100    0.0100    0.0100    0.0100    0.0100
0.0100    0.0100    0.0100    0.0100    0.0100    0.0100    0.0100    0.0100
0.0100    0.0100    0.0100    0.0100    0.0100    0.0100    0.0100    0.0100
0.0100    0.0100    0.0100    0.0100    0.0100    0.0100    0.0100    0.0100
0.0100    0.0100    0.0100    0.0100    0.0100    0.0100    0.0100    0.0100
0.0100    0.0100    0.0100    0.0100    0.0100    0.0100    0.0100    0.0100
0.0100    0.0100    0.0100    0.0100    0.0100    0.0100    0.0100    0.0100
0.0100    0.0100    0.0100    0.0100    0.0100    0.0100    0.0100    0.0100
0.0100    0.0100    0.0100    0.0100    0.0100    0.0100    0.0100    0.0100
0.0100    0.0100    0.0100    0.0100    0.0100    0.0100    0.0100    0.0100
0.0100    0.0100    0.0100    0.0100    0.0100    0.0100    0.0100    0.0100
0.0100    0.0100    0.0100    0.0100    0.0100    0.0100    0.0100    0.0100
0.0100    0.0100    0.0100    0.0100    0.0100    0.0100    0.0100    0.0100
0.0100    0.0100    0.0100    0.0100    0.0100    0.0100    0.0100    0.0100
0.0100    0.0100    0.0100    0.0100    0.0100    0.0100    0.0100    0.0100
0.0100    0.0100    0.0100    0.0100    0.0100    0.0100    0.0100    0.0100
0.0100    0.0100    0.0100    0.0100    0.0100    0.0100    0.0100    0.0100
0.0100    0.0100    0.0100    0.0100    0.0100    0.0100    0.0100    0.0100
0.0100    0.0100    0.0100    0.0100    0.0100    0.0100    0.0100    0.0100
0.0100    0.0100    0.0100    0.0100    0.0100    0.0100    0.0100    0.0100
0.0100    0.0100    0.0100    0.0100    0.0100    0.0100    0.0100    0.0100
0.0100    0.0100    0.0100    0.0100    0.0100    0.0100    0.0100    0.0100
0.0100    0.0100    0.0100    0.0100    0.0100    0.0100    0.0100    0.0100
0.0100    0.0100    0.0100    0.0100    0.0100    0.0100    0.0100    0.0100
0.0100    0.0100    0.0100    0.0100    0.0100    0.0100    0.0100    0.0100
0.0100    0.0100    0.0100    0.0100    0.0100    0.0100    0.0100    0.0100
0.0100    0.0100    0.0100    0.0100    0.0100    0.0100    0.0100    0.0100
0.0100    0.0100    0.0100    0.0100    0.0100    0.0100    0.0100    0.0100
0.0100    0.0100    0.0100    0.0100    0.0100    0.0100    0.0100    0.0100
0.0100    0.0100    0.0100    0.0100    0.0100    0.0100    0.0100    0.0100
0.0100    0.0100    0.0100    0.0100    0.0100    0.0100    0.0100    0.0100
0.0100    0.0100    0.0100    0.0100    0.0100    0.0100    0.0100    0.0100
0.0100    0.0100    0.0100    0.0100    0.0100    0.0100    0.0100    0.0100
0.0100    0.0100    0.0100    0.0100    0.0100    0.0100    0.0100    0.0100
0.0100    0.0100    0.0100    0.0100    0.0100    0.0100    0.0100    0.0100
0.0100    0.0100    0.0100    0.0100    0.0100    0.0100    0.0100    0.0100
0.0100    0.0100    0.0100    0.0100    0.0100    0.0100    0.0100    0.0100
0.0100    0.0100    0.0100    0.0100    0.0100    0.0100    0.0100    0.0100
0.0100    0.0100    0.0100    0.0100    0.0100    0.0100    0.0100    0.0100
0.0100    0.0100    0.0100    0.0100    0.0100    0.0100    0.0100    0.0100
0.0100    0.0100    0.0100    0.0100    0.0100    0.0100    0.0100    0.0100
0.0100    0.0100    0.0100    0.0100    0.0100    0.0100    0.0100    0.0100
0.0100    0.0100    0.0100    0.0100    0.0100    0.0100    0.0100    0.0100
0.0100    0.0100    0.0100    0.0100    0.0100    0.0100    0.0100    0.0100
0.0100    0.0100    0.0100    0.0100    0.0100    0.0100    0.0100    0.0100
0.0100    0.0100    0.0100    0.0100    0.0100    0.0100    0.0100    0.0100
0.0100    0.0100    0.0100    0.0100    0.0100    0.0100    0.0100    0.0100
0.0100    0.0100    0.0100    0.0100    0.0100    0.0100    0.0100    0.0100
0.0100    0.0100    0.0100    0.0100    0.0100    0.0100    0.0100    0.0100
0.0100    0.0100    0.0100    0.0100    0.0100    0.0100    0.0100    0.0100
0.0100    0.0100    0.0100    0.0100    0.0100    0.0100    0.0100    0.0100
0.0100    0.0100    0.0100    0.0100    0.0100    0.0100    0.0100    0.0100
0.0100    0.0100    0.0100    0.0100    0.0100    0.0100    0.0100    0.0100
0.0100    0.0100    0.0100    0.0100    0.0100    0.0100    0.0100    0.0100
</PP_RAB>
</PP_MESH>
<PP_LOCAL type="real"  size="600" columns="4">
-5.2223282757E+01   -5.2220171778E+01   -5.2210840982E+01   -5.2195296825E+01
-5.2173549999E+01   -5.2145615342E+01   -5.2111511707E+01   -5.2071261806E+01
-5.2024892017E+01   -5.1972432178E+01   -5.1913915347E+01   -5.1849377558E+01
-5.1778857561E+01   -5.1702396554E+01   -5.1620037913E+01   -5.1531826931E+01
-5.1437810553E+01   -5.1338037129E+01   -5.1232556173E+01   -5.1121418138E+01
-5.1004674217E+01   -5.0882376149E+01   -5.0754576056E+01   -5.0621326294E+01
-5.0482679333E+01   -5.0338687650E+01   -5.0189403653E+01   -5.0034879616E+01
-4.9875167647E+01   -4.9710319669E+01   -4.9540387423E+01   -4.9365422493E+01
-4.9185476348E+01   -4.9000600409E+01   -4.8810846125E+01   -4.8616265074E+01
-4.8416909086E+01   -4.8212830371E+01   -4.8004081676E+01   -4.7790716453E+01
-4.7572789047E+01   -4.7350354892E+01   -4.7123470735E+01   -4.6892194859E+01
-4.6656587331E+01   -4.6416710252E+01   -4.6172628022E+01   -4.5924407610E+01
-4.5672118827E+01   -4.5415834599E+01   -4.5155631241E+01   -4.4891588718E+01
-4.4623790898E+01   -4.4352325789E+01   -4.4077285748E+01   -4.3798767670E+01
-4.3516873139E+01   -4.3231708547E+01   -4.2943385165E+01   -4.2652019180E+01
-4.2357731673E+01   -4.2060648560E+01   -4.1760900482E+01   -4.1458622648E+01
-4.1153954640E+01   -4.0847040176E+01   -4.0538026841E+01   -4.0227065798E+01
-3.9914311470E+01   -3.9599921214E+01   -3.9284054989E+01   -3.8966875019E+01
-3.8648545466E+01   -3.8329232107E+01   -3.8009102024E+01   -3.7688323308E+01
-3.7367064775E+01   -3.7045495700E+01   -3.6723785559E+01   -3.6402103786E+01
-3.6080619532E+01   -3.5759501441E+01   -3.5438917419E+01   -3.5119034402E+01
-3.4800018134E+01   -3.4482032924E+01   -3.4165241405E+01   -3.3849804282E+01
-3.3535880072E+01   -3.3223624828E+01   -3.2913191855E+01   -3.2604731421E+01
-3.2298390444E+01   -3.1994312187E+01   -3.1692635934E+01   -3.1393496662E+01
-3.1097024714E+01   -3.0803345464E+01   -3.0512578985E+01   -3.0224839717E+01
-2.9940236139E+01   -2.9658870445E+01   -2.9380838228E+01   -2.9106228166E+01
-2.8835121727E+01   -2.8567592870E+01   -2.8303707765E+01   -2.8043524521E+01
-2.7787092919E+01   -2.7534454163E+01   -2.7285640635E+01   -2.7040675660E+01
-2.6799573282E+01   -2.6562338047E+01   -2.6328964796E+01   -2.6099438458E+01
-2.5873733861E+01   -2.5651815529E+01   -2.5433637501E+01   -2.5219143279E+01
-2.5008265308E+01   -2.4800924965E+01   -2.4597037639E+01   -2.4396517803E+01
-2.4199282662E+01   -2.4005251126E+01   -2.3814343952E+01   -2.3626483712E+01
-2.3441594780E+01   -2.3259603313E+01   -2.3080437235E+01   -2.2904026202E+01
-2.2730301632E+01   -2.2559196672E+01   -2.2390646289E+01   -2.2224586671E+01
-2.2060954715E+01   -2.1899687271E+01   -2.1740722751E+01   -2.1584003597E+01
-2.1429483155E+01   -2.1277129834E+01   -2.1126927052E+01   -2.0978863057E+01
-2.0832902128E+01   -2.0688995204E+01   -2.0547092669E+01   -2.0407150080E+01
-2.0269131498E+01   -2.0132997927E+01   -1.9998708048E+01   -1.9866223486E+01
-1.9735507045E+01   -1.9606521925E+01   -1.9479232233E+01   -1.9353602989E+01
-1.9229600068E+01   -1.9107190204E+01   -1.8986340990E+01   -1.8867020872E+01
-1.8749199145E+01   -1.8632845942E+01   -1.8517932226E+01   -1.8404429776E+01
-1.8292311178E+01   -1.8181549809E+01   -1.8072119819E+01   -1.7963996117E+01
-1.7857154351E+01   -1.7751570889E+01   -1.7647222797E+01   -1.7544087821E+01
-1.7442144364E+01   -1.7341371460E+01   -1.7241748757E+01   -1.7143256489E+01
-1.7045875454E+01   -1.6949586993E+01   -1.6854372963E+01   -1.6760215713E+01
-1.6667098067E+01   -1.6575003292E+01   -1.6483915086E+01   -1.6393817546E+01
-1.6304695155E+01   -1.6216532755E+01   -1.6129315532E+01   -1.6043028995E+01
-1.5957658958E+01   -1.5873191521E+01   -1.5789613059E+01   -1.5706910203E+01
-1.5625069825E+01   -1.5544079030E+01   -1.5463925139E+01   -1.5384595685E+01
-1.5306078397E+01   -1.5228361196E+01   -1.5151432187E+01   -1.5075279655E+01
-1.4999892057E+01   -1.4925258020E+01   -1.4851366338E+01   -1.4778205973E+01
-1.4705766048E+01   -1.4634035851E+01   -1.4563004837E+01   -1.4492662621E+01
-1.4422998990E+01   -1.4354003896E+01   -1.4285667462E+01   -1.4217979983E+01
-1.4150931928E+01   -1.4084513942E+01   -1.4018716847E+01   -1.3953531648E+01
-1.3888949525E+01   -1.3824961845E+01   -1.3761560154E+01   -1.3698736180E+01
-1.3636481831E+01   -1.3574789197E+01   -1.3513650543E+01   -1.3453058312E+01
-1.3393005116E+01   -1.3333483737E+01   -1.3274487120E+01   -1.3216008371E+01
-1.3158040746E+01   -1.3100577654E+01   -1.3043612642E+01   -1.2987139395E+01
-1.2931151727E+01   -1.2875643574E+01   -1.2820608990E+01   -1.2766042139E+01
-1.2711937286E+01   -1.2658288795E+01   -1.2605091121E+01   -1.2552338806E+01
-1.2500026472E+01   -1.2448148815E+01   -1.2396700607E+01   -1.2345676683E+01
-1.2295071945E+01   -1.2244881359E+01   -1.2195099945E+01   -1.2145722787E+01
-1.2096745021E+01   -1.2048161841E+01   -1.1999968494E+01   -1.1952160286E+01
-1.1904732574E+01   -1.1857680773E+01   -1.1811000357E+01   -1.1764686855E+01
-1.1718735856E+01   -1.1673143009E+01   -1.1627904026E+01   -1.1583014680E+01
-1.1538470809E+01   -1.1494268317E+01   -1.1450403172E+01   -1.1406871410E+01
-1.1363669138E+01   -1.1320792557E+01   -1.1278237868E+01   -1.1236001336E+01
-1.1194079183E+01   -1.1152468020E+01   -1.1111164794E+01   -1.1070166442E+01
-1.1029469553E+01   -1.0989068936E+01   -1.0948960201E+01   -1.0909138373E+01
-1.0869603034E+01   -1.0830352964E+01   -1.0791387885E+01   -1.0752704806E+01
-1.0714300179E+01   -1.0676170212E+01   -1.0638311253E+01   -1.0600720250E+01
-1.0563394005E+01   -1.0526329416E+01   -1.0489523790E+01   -1.0452974495E+01
-1.0416679078E+01   -1.0380634930E+01   -1.0344839405E+01   -1.0309289915E+01
-1.0273983888E+01   -1.0238918859E+01   -1.0204092370E+01   -1.0169501998E+01
-1.0135145349E+01   -1.0101020061E+01   -1.0067123805E+01   -1.0033454284E+01
-1.0000009229E+01   -9.9667864036E+00   -9.9337836003E+00   -9.9009986403E+00
-9.8684293739E+00   -9.8360736795E+00   -9.8039294631E+00   -9.7719946581E+00
-9.7402672248E+00   -9.7087451498E+00   -9.6774264457E+00   -9.6463091507E+00
-9.6153913281E+00   -9.5846710659E+00   -9.5541464767E+00   -9.5238156968E+00
-9.4936768862E+00   -9.4637282281E+00   -9.4339679287E+00   -9.4043942164E+00
-9.3750053420E+00   -9.3457995779E+00   -9.3167752182E+00   -9.2879305779E+00
-9.2592639929E+00   -9.2307738196E+00   -9.2024584346E+00   -9.1743162343E+00
-9.1463456345E+00   -9.1185450706E+00   -9.0909129968E+00   -9.0634478858E+00
-9.0361482290E+00   -9.0090125358E+00   -8.9820393334E+00   -8.9552271666E+00
-8.9285745976E+00   -8.9020802057E+00   -8.8757425868E+00   -8.8495603536E+00
-8.8235321349E+00   -8.7976565759E+00   -8.7719323374E+00   -8.7463580958E+00
-8.7209325430E+00   -8.6956543861E+00   -8.6705223470E+00   -8.6455351624E+00
-8.6206915836E+00   -8.5959903762E+00   -8.5714303197E+00   -8.5470102078E+00
-8.5227288477E+00   -8.4985850603E+00   -8.4745776796E+00   -8.4507055529E+00
-8.4269675404E+00   -8.4033625151E+00   -8.3798893625E+00   -8.3565469806E+00
-8.3333342797E+00   -8.3102501821E+00   -8.2872936220E+00   -8.2644635454E+00
-8.2417589097E+00   -8.2191786840E+00   -8.1967218485E+00   -8.1743873946E+00
-8.1521743245E+00   -8.1300816515E+00   -8.1081083992E+00   -8.0862536021E+00
-8.0645163048E+00   -8.0428955623E+00   -8.0213904397E+00   -8.0000000119E+00
-7.9787233639E+00   -7.9575595903E+00   -7.9365077951E+00   -7.9155670921E+00
-7.8947366042E+00   -7.8740154635E+00   -7.8534028114E+00   -7.8328977979E+00
-7.8124995822E+00   -7.7922073321E+00   -7.7720202240E+00   -7.7519374428E+00
-7.7319581819E+00   -7.7120816430E+00   -7.6923070358E+00   -7.6726335783E+00
-7.6530604963E+00   -7.6335870237E+00   -7.6142124019E+00   -7.5949358802E+00
-7.5757567155E+00   -7.5566741720E+00   -7.5376875214E+00   -7.5187960427E+00
-7.4999990221E+00   -7.4812957530E+00   -7.4626855357E+00   -7.4441676775E+00
-7.4257414925E+00   -7.4074063018E+00   -7.3891614328E+00   -7.3710062200E+00
-7.3529400039E+00   -7.3349621319E+00   -7.3170719575E+00   -7.2992688406E+00
-7.2815521472E+00   -7.2639212495E+00   -7.2463755260E+00   -7.2289143607E+00
-7.2115371440E+00   -7.1942432719E+00   -7.1770321462E+00   -7.1599031745E+00
-7.1428557699E+00   -7.1258893512E+00   -7.1090033426E+00   -7.0921971739E+00
-7.0754702802E+00   -7.0588221018E+00   -7.0422520845E+00   -7.0257596790E+00
-7.0093443414E+00   -6.9930055327E+00   -6.9767427190E+00   -6.9605553714E+00
-6.9444429656E+00   -6.9284049826E+00   -6.9124409079E+00   -6.8965502317E+00
-6.8807324490E+00   -6.8649870594E+00   -6.8493135670E+00   -6.8337114805E+00
-6.8181803130E+00   -6.8027195822E+00   -6.7873288098E+00   -6.7720075222E+00
-6.7567552499E+00   -6.7415715275E+00   -6.7264558939E+00   -6.7114078923E+00
-6.6964270696E+00   -6.6815129770E+00   -6.6666651697E+00   -6.6518832067E+00
-6.6371666510E+00   -6.6225150694E+00   -6.6079280326E+00   -6.5934051149E+00
-6.5789458946E+00   -6.5645499536E+00   -6.5502168772E+00   -6.5359462546E+00
-6.5217376785E+00   -6.5075907451E+00   -6.4935050542E+00   -6.4794802088E+00
-6.4655158157E+00   -6.4516114847E+00   -6.4377668292E+00   -6.4239814659E+00
-6.4102550146E+00   -6.3965870986E+00   -6.3829773441E+00   -6.3694253807E+00
-6.3559308412E+00   -6.3424933612E+00   -6.3291125796E+00   -6.3157881384E+00
-6.3025196823E+00   -6.2893068594E+00   -6.2761493205E+00   -6.2630467193E+00
-6.2499987123E+00   -6.2370049592E+00   -6.2240651223E+00   -6.2111788665E+00
-6.1983458599E+00   -6.1855657730E+00   -6.1728382792E+00   -6.1601630545E+00
-6.1475397775E+00   -6.1349681295E+00   -6.1224477945E+00   -6.1099784589E+00
-6.0975598117E+00   -6.0851915445E+00   -6.0728733513E+00   -6.0606049286E+00
-6.0483859754E+00   -6.0362161931E+00   -6.0240952855E+00   -6.0120229587E+00
-5.9999989212E+00   -5.9880228839E+00   -5.9760945599E+00   -5.9642136646E+00
-5.9523799157E+00   -5.9405930332E+00   -5.9288527391E+00   -5.9171587578E+00
-5.9055108157E+00   -5.8939086416E+00   -5.8823519662E+00   -5.8708405223E+00
-5.8593740450E+00   -5.8479522712E+00   -5.8365749401E+00   -5.8252417927E+00
-5.8139525722E+00   -5.8027070237E+00   -5.7915048942E+00   -5.7803459327E+00
-5.7692298903E+00   -5.7581565197E+00   -5.7471255757E+00   -5.7361368150E+00
-5.7251899960E+00   -5.7142848791E+00   -5.7034212264E+00   -5.6925988019E+00
-5.6818173713E+00   -5.6710767022E+00   -5.6603765637E+00   -5.6497167270E+00
-5.6390969647E+00   -5.6285170513E+00   -5.6179767629E+00   -5.6074758774E+00
-5.5970141741E+00   -5.5865914342E+00   -5.5762074404E+00   -5.5658619770E+00
-5.5555548300E+00   -5.5452857870E+00   -5.5350546369E+00   -5.5248611705E+00
-5.5147051799E+00   -5.5045864588E+00   -5.4945048025E+00   -5.4844600076E+00
-5.4744518725E+00   -5.4644801967E+00   -5.4545447813E+00   -5.4446454290E+00
-5.4347819438E+00   -5.4249541310E+00   -5.4151617976E+00   -5.4054047516E+00
-5.3956828028E+00   -5.3859957620E+00   -5.3763434417E+00   -5.3667256554E+00
-5.3571422182E+00   -5.3475929464E+00   -5.3380776575E+00   -5.3285961706E+00
-5.3191483058E+00   -5.3097338846E+00   -5.3003527298E+00   -5.2910046652E+00
-5.2816895162E+00   -5.2724071092E+00   -5.2631572719E+00   -5.2539398331E+00
-5.2447546230E+00   -5.2356014727E+00   -5.2264802148E+00   -5.2173906829E+00
-5.2083327116E+00   -5.1993061370E+00   -5.1903107960E+00   -5.1813465268E+00
-5.1724131687E+00   -5.1635105622E+00   -5.1546385486E+00   -5.1457969705E+00
-5.1369856717E+00   -5.1282044968E+00   -5.1194532916E+00   -5.1107319030E+00
-5.1020401788E+00   -5.0933779680E+00   -5.0847451204E+00   -5.0761414870E+00
-5.0675669198E+00   -5.0590212718E+00   -5.0505043968E+00   -5.0420161498E+00
-5.0335563867E+00   -5.0251249644E+00   -5.0167217406E+00   -5.0083465743E+00
</PP_LOCAL>
<PP_NONLOCAL>
<PP_BETA.1
type="real"
size="600"
columns="4"
index="1"
angular_momentum="0"
cutoff_radius_index=" 144"
cutoff_radius="    1.4300000000E+00" >
-3.5113123520E-10    6.0178680576E-02    1.2026705346E-01    1.8017508351E-01
2.3981327615E-01    2.9909293629E-01    3.5792641386E-01    4.1622733201E-01
4.7391079418E-01    5.3089356686E-01    5.8709423523E-01    6.4243332951E-01
6.9683342047E-01    7.5021918305E-01    8.0251742793E-01    8.5365710150E-01
9.0356925526E-01    9.5218698663E-01    9.9944535362E-01    1.0452812665E+00
1.0896333605E+00    1.1324418533E+00    1.1736483925E+00    1.2131958989E+00
1.2510284095E+00    1.2870909271E+00    1.3213292829E+00    1.3536900164E+00
1.3841202792E+00    1.4125677691E+00    1.4389806981E+00    1.4633078002E+00
1.4854983835E+00    1.5055024293E+00    1.5232707420E+00    1.5387551516E+00
1.5519087703E+00    1.5626863028E+00    1.5710444111E+00    1.5769421303E+00
1.5803413344E+00    1.5812072464E+00    1.5795089907E+00    1.5752201786E+00
1.5683195232E+00    1.5587914743E+00    1.5466268654E+00    1.5318235640E+00
1.5143871152E+00    1.4943313683E+00    1.4716790767E+00    1.4464624597E+00
1.4187237156E+00    1.3885154763E+00    1.3559011927E+00    1.3209554407E+00
1.2837641405E+00    1.2444246780E+00    1.2030459246E+00    1.1597481452E+00
1.1146627933E+00    1.0679321862E+00    1.0197090606E+00    9.7015600555E-01
9.1944477626E-01    8.6775548869E-01    8.1527570089E-01    7.6219938601E-01
7.0872580463E-01    6.5505828535E-01    6.0140292399E-01    5.4796721340E-01
4.9495861667E-01    4.4258309819E-01    3.9104362751E-01    3.4053867190E-01
2.9126069413E-01    2.4339467214E-01    1.9711665761E-01    1.5259239030E-01
1.0997598449E-01    6.9408703676E-02    3.1017838616E-02   -5.0842971710E-03
-3.8801241360E-02   -7.0053114736E-02   -9.8777201066E-02   -1.2492836666E-01
-1.4847931328E-01   -1.6942065991E-01   -1.8776085118E-01   -2.0352589210E-01
-2.1675891111E-01   -2.2751955545E-01   -2.3588322508E-01   -2.4194015322E-01
-2.4579434374E-01   -2.4756237726E-01   -2.4737209947E-01   -2.4536120682E-01
-2.4167574569E-01   -2.3646854254E-01   -2.2989758295E-01   -2.2212435835E-01
-2.1331219933E-01   -2.0362461430E-01   -1.9322365240E-01   -1.8226830852E-01
-1.7091298793E-01   -1.5930604665E-01   -1.4758842254E-01   -1.3589237067E-01
-1.2434031463E-01   -1.1304382359E-01   -1.0210272303E-01   -9.1604344934E-02
-8.1622920861E-02   -7.2219117672E-02   -6.3439714748E-02   -5.5317470767E-02
-4.7870964786E-02   -4.1104736182E-02   -3.5011052662E-02   -2.9572123272E-02
-2.4762197991E-02   -2.0548467012E-02   -1.6892345528E-02   -1.3750757908E-02
-1.1077461016E-02   -8.8243729637E-03   -6.9428958662E-03   -5.3852119277E-03
-4.1055323970E-03   -3.0612826602E-03   -2.2142083386E-03   -1.5313796307E-03
-9.8622568940E-04   -5.5865904654E-04   -2.3653369254E-04   -1.5709535864E-05
9.8886672933E-05    8.7127697637E-05    1.0305477194E-05   -1.4101785537E-05
0. 0. 0. 0.
0. 0. 0. 0.
0. 0. 0. 0.
0. 0. 0. 0.
0. 0. 0. 0.
0. 0. 0. 0.
0. 0. 0. 0.
0. 0. 0. 0.
0. 0. 0. 0.
0. 0. 0. 0.
0. 0. 0. 0.
0. 0. 0. 0.
0. 0. 0. 0.
0. 0. 0. 0.
0. 0. 0. 0.
0. 0. 0. 0.
0. 0. 0. 0.
0. 0. 0. 0.
0. 0. 0. 0.
0. 0. 0. 0.
0. 0. 0. 0.
0. 0. 0. 0.
0. 0. 0. 0.
0. 0. 0. 0.
0. 0. 0. 0.
0. 0. 0. 0.
0. 0. 0. 0.
0. 0. 0. 0.
0. 0. 0. 0.
0. 0. 0. 0.
0. 0. 0. 0.
0. 0. 0. 0.
0. 0. 0. 0.
0. 0. 0. 0.
0. 0. 0. 0.
0. 0. 0. 0.
0. 0. 0. 0.
0. 0. 0. 0.
0. 0. 0. 0.
0. 0. 0. 0.
0. 0. 0. 0.
0. 0. 0. 0.
0. 0. 0. 0.
0. 0. 0. 0.
0. 0. 0. 0.
0. 0. 0. 0.
0. 0. 0. 0.
0. 0. 0. 0.
0. 0. 0. 0.
0. 0. 0. 0.
0. 0. 0. 0.
0. 0. 0. 0.
0. 0. 0. 0.
0. 0. 0. 0.
0. 0. 0. 0.
0. 0. 0. 0.
0. 0. 0. 0.
0. 0. 0. 0.
0. 0. 0. 0.
0. 0. 0. 0.
0. 0. 0. 0.
0. 0. 0. 0.
0. 0. 0. 0.
0. 0. 0. 0.
0. 0. 0. 0.
0. 0. 0. 0.
0. 0. 0. 0.
0. 0. 0. 0.
0. 0. 0. 0.
0. 0. 0. 0.
0. 0. 0. 0.
0. 0. 0. 0.
0. 0. 0. 0.
0. 0. 0. 0.
0. 0. 0. 0.
0. 0. 0. 0.
0. 0. 0. 0.
0. 0. 0. 0.
0. 0. 0. 0.
0. 0. 0. 0.
0. 0. 0. 0.
0. 0. 0. 0.
0. 0. 0. 0.
0. 0. 0. 0.
0. 0. 0. 0.
0. 0. 0. 0.
0. 0. 0. 0.
0. 0. 0. 0.
0. 0. 0. 0.
0. 0. 0. 0.
0. 0. 0. 0.
0. 0. 0. 0.
0. 0. 0. 0.
0. 0. 0. 0.
0. 0. 0. 0.
0. 0. 0. 0.
0. 0. 0. 0.
0. 0. 0. 0.
0. 0. 0. 0.
0. 0. 0. 0.
0. 0. 0. 0.
0. 0. 0. 0.
0. 0. 0. 0.
0. 0. 0. 0.
0. 0. 0. 0.
0. 0. 0. 0.
0. 0. 0. 0.
0. 0. 0. 0.
0. 0. 0. 0.
0. 0. 0. 0.
0. 0. 0. 0.
0. 0. 0. 0.