<UPF version="2.0.1">
<PP_INFO>
NOTE!!!!
This file is trimmed with a mesh size of 600 from the original version.
Trimming performed at 2023-03-31 09:10:05.146364 by trim_upf.py version 0.1.0

This pseudopotential file has been produced using the code
ONCVPSP  (Optimized Norm-Conservinng Vanderbilt PSeudopotential)
scalar-relativistic version 3.3.0 08/16/2017 by D. R. Hamann
The code is available through a link at URL www.mat-simresearch.com.
Documentation with the package provides a full discription of the
input data below.
While it is not required under the terms of the GNU GPL, it is
suggested that you cite D. R. Hamann, Phys. Rev. B 88, 085117 (2013)
in any publication using these pseudopotentials.
<PP_INPUTFILE>
# ATOM AND REFERENCE CONFIGURATION
# atsym  z   nc   nv     iexc    psfile
Te 52.00    8    3       4      upf
#
#   n    l    f        energy (Ha)
1    0    2.00
2    0    2.00
2    1    6.00
3    0    2.00
3    1    6.00
3    2   10.00
4    0    2.00
4    1    6.00
4    2   10.00
5    0    2.00
5    1    4.00
#
# PSEUDOPOTENTIAL AND OPTIMIZATION
# lmax
2
#
#   l,   rc,      ep,       ncon, nbas, qcut
0   2.25000  -0.55523    4    8   4.20000
1   1.90000  -0.21878    4    8   4.80000
2   1.80000  -1.53072    4    9   8.40000
#
# LOCAL POTENTIAL
# lloc, lpopt,  rc(5),   dvloc0
4    5   1.80000      0.00000
#
# VANDERBILT-KLEINMAN-BYLANDER PROJECTORs
# l, nproj, debl
0    2   3.00000
1    2   3.50000
2    2   1.60000
#
# MODEL CORE CHARGE
# icmod, fcfact, rcfact
3   5.00000   1.43000
#
# LOG DERIVATIVE ANALYSIS
# epsh1, epsh2, depsh
-12.00   12.00    0.02
#
# OUTPUT GRID
# rlmax, drl
6.00    0.01
#
# TEST CONFIGURATIONS
# ncnf
0
# nvcnf
#   n    l    f
</PP_INPUTFILE>
</PP_INFO>
<!--                               -->
<!-- END OF HUMAN READABLE SECTION -->
<!--                               -->
<PP_HEADER
generated="Generated using ONCVPSP code by D. R. Hamann"
author="anonymous"
date="171031"
comment=""
element="Te"
pseudo_type="NC"
relativistic="scalar"
is_ultrasoft="F"
is_paw="F"
is_coulomb="F"
has_so="F"
has_wfc="F"
has_gipaw="F"
core_correction="T"
functional="PBE"
z_valence="   16.00"
total_psenergy="  -1.86480035507E+02"
rho_cutoff="   1.29300000000E+01"
l_max="2"
l_local="-1"
mesh_size="   600"
number_of_wfc="3"
number_of_proj="6"/>
<PP_MESH>
<PP_R type="real"  size="600" columns="8">
0.0000    0.0100    0.0200    0.0300    0.0400    0.0500    0.0600    0.0700
0.0800    0.0900    0.1000    0.1100    0.1200    0.1300    0.1400    0.1500
0.1600    0.1700    0.1800    0.1900    0.2000    0.2100    0.2200    0.2300
0.2400    0.2500    0.2600    0.2700    0.2800    0.2900    0.3000    0.3100
0.3200    0.3300    0.3400    0.3500    0.3600    0.3700    0.3800    0.3900
0.4000    0.4100    0.4200    0.4300    0.4400    0.4500    0.4600    0.4700
0.4800    0.4900    0.5000    0.5100    0.5200    0.5300    0.5400    0.5500
0.5600    0.5700    0.5800    0.5900    0.6000    0.6100    0.6200    0.6300
0.6400    0.6500    0.6600    0.6700    0.6800    0.6900    0.7000    0.7100
0.7200    0.7300    0.7400    0.7500    0.7600    0.7700    0.7800    0.7900
0.8000    0.8100    0.8200    0.8300    0.8400    0.8500    0.8600    0.8700
0.8800    0.8900    0.9000    0.9100    0.9200    0.9300    0.9400    0.9500
0.9600    0.9700    0.9800    0.9900    1.0000    1.0100    1.0200    1.0300
1.0400    1.0500    1.0600    1.0700    1.0800    1.0900    1.1000    1.1100
1.1200    1.1300    1.1400    1.1500    1.1600    1.1700    1.1800    1.1900
1.2000    1.2100    1.2200    1.2300    1.2400    1.2500    1.2600    1.2700
1.2800    1.2900    1.3000    1.3100    1.3200    1.3300    1.3400    1.3500
1.3600    1.3700    1.3800    1.3900    1.4000    1.4100    1.4200    1.4300
1.4400    1.4500    1.4600    1.4700    1.4800    1.4900    1.5000    1.5100
1.5200    1.5300    1.5400    1.5500    1.5600    1.5700    1.5800    1.5900
1.6000    1.6100    1.6200    1.6300    1.6400    1.6500    1.6600    1.6700
1.6800    1.6900    1.7000    1.7100    1.7200    1.7300    1.7400    1.7500
1.7600    1.7700    1.7800    1.7900    1.8000    1.8100    1.8200    1.8300
1.8400    1.8500    1.8600    1.8700    1.8800    1.8900    1.9000    1.9100
1.9200    1.9300    1.9400    1.9500    1.9600    1.9700    1.9800    1.9900
2.0000    2.0100    2.0200    2.0300    2.0400    2.0500    2.0600    2.0700
2.0800    2.0900    2.1000    2.1100    2.1200    2.1300    2.1400    2.1500
2.1600    2.1700    2.1800    2.1900    2.2000    2.2100    2.2200    2.2300
2.2400    2.2500    2.2600    2.2700    2.2800    2.2900    2.3000    2.3100
2.3200    2.3300    2.3400    2.3500    2.3600    2.3700    2.3800    2.3900
2.4000    2.4100    2.4200    2.4300    2.4400    2.4500    2.4600    2.4700
2.4800    2.4900    2.5000    2.5100    2.5200    2.5300    2.5400    2.5500
2.5600    2.5700    2.5800    2.5900    2.6000    2.6100    2.6200    2.6300
2.6400    2.6500    2.6600    2.6700    2.6800    2.6900    2.7000    2.7100
2.7200    2.7300    2.7400    2.7500    2.7600    2.7700    2.7800    2.7900
2.8000    2.8100    2.8200    2.8300    2.8400    2.8500    2.8600    2.8700
2.8800    2.8900    2.9000    2.9100    2.9200    2.9300    2.9400    2.9500
2.9600    2.9700    2.9800    2.9900    3.0000    3.0100    3.0200    3.0300
3.0400    3.0500    3.0600    3.0700    3.0800    3.0900    3.1000    3.1100
3.1200    3.1300    3.1400    3.1500    3.1600    3.1700    3.1800    3.1900
3.2000    3.2100    3.2200    3.2300    3.2400    3.2500    3.2600    3.2700
3.2800    3.2900    3.3000    3.3100    3.3200    3.3300    3.3400    3.3500
3.3600    3.3700    3.3800    3.3900    3.4000    3.4100    3.4200    3.4300
3.4400    3.4500    3.4600    3.4700    3.4800    3.4900    3.5000    3.5100
3.5200    3.5300    3.5400    3.5500    3.5600    3.5700    3.5800    3.5900
3.6000    3.6100    3.6200    3.6300    3.6400    3.6500    3.6600    3.6700
3.6800    3.6900    3.7000    3.7100    3.7200    3.7300    3.7400    3.7500
3.7600    3.7700    3.7800    3.7900    3.8000    3.8100    3.8200    3.8300
3.8400    3.8500    3.8600    3.8700    3.8800    3.8900    3.9000    3.9100
3.9200    3.9300    3.9400    3.9500    3.9600    3.9700    3.9800    3.9900
4.0000    4.0100    4.0200    4.0300    4.0400    4.0500    4.0600    4.0700
4.0800    4.0900    4.1000    4.1100    4.1200    4.1300    4.1400    4.1500
4.1600    4.1700    4.1800    4.1900    4.2000    4.2100    4.2200    4.2300
4.2400    4.2500    4.2600    4.2700    4.2800    4.2900    4.3000    4.3100
4.3200    4.3300    4.3400    4.3500    4.3600    4.3700    4.3800    4.3900
4.4000    4.4100    4.4200    4.4300    4.4400    4.4500    4.4600    4.4700
4.4800    4.4900    4.5000    4.5100    4.5200    4.5300    4.5400    4.5500
4.5600    4.5700    4.5800    4.5900    4.6000    4.6100    4.6200    4.6300
4.6400    4.6500    4.6600    4.6700    4.6800    4.6900    4.7000    4.7100
4.7200    4.7300    4.7400    4.7500    4.7600    4.7700    4.7800    4.7900
4.8000    4.8100    4.8200    4.8300    4.8400    4.8500    4.8600    4.8700
4.8800    4.8900    4.9000    4.9100    4.9200    4.9300    4.9400    4.9500
4.9600    4.9700    4.9800    4.9900    5.0000    5.0100    5.0200    5.0300
5.0400    5.0500    5.0600    5.0700    5.0800    5.0900    5.1000    5.1100
5.1200    5.1300    5.1400    5.1500    5.1600    5.1700    5.1800    5.1900
5.2000    5.2100    5.2200    5.2300    5.2400    5.2500    5.2600    5.2700
5.2800    5.2900    5.3000    5.3100    5.3200    5.3300    5.3400    5.3500
5.3600    5.3700    5.3800    5.3900    5.4000    5.4100    5.4200    5.4300
5.4400    5.4500    5.4600    5.4700    5.4800    5.4900    5.5000    5.5100
5.5200    5.5300    5.5400    5.5500    5.5600    5.5700    5.5800    5.5900
5.6000    5.6100    5.6200    5.6300    5.6400    5.6500    5.6600    5.6700
5.6800    5.6900    5.7000    5.7100    5.7200    5.7300    5.7400    5.7500
5.7600    5.7700    5.7800    5.7900    5.8000    5.8100    5.8200    5.8300
5.8400    5.8500    5.8600    5.8700    5.8800    5.8900    5.9000    5.9100
5.9200    5.9300    5.9400    5.9500    5.9600    5.9700    5.9800    5.9900
</PP_R>
<PP_RAB type="real"  size="600" columns="8">
0.0100    0.0100    0.0100    0.0100    0.0100    0.0100    0.0100    0.0100
0.0100    0.0100    0.0100    0.0100    0.0100    0.0100    0.0100    0.0100
0.0100    0.0100    0.0100    0.0100    0.0100    0.0100    0.0100    0.0100
0.0100    0.0100    0.0100    0.0100    0.0100    0.0100    0.0100    0.0100
0.0100    0.0100    0.0100    0.0100    0.0100    0.0100    0.0100    0.0100
0.0100    0.0100    0.0100    0.0100    0.0100    0.0100    0.0100    0.0100
0.0100    0.0100    0.0100    0.0100    0.0100    0.0100    0.0100    0.0100
0.0100    0.0100    0.0100    0.0100    0.0100    0.0100    0.0100    0.0100
0.0100    0.0100    0.0100    0.0100    0.0100    0.0100    0.0100    0.0100
0.0100    0.0100    0.0100    0.0100    0.0100    0.0100    0.0100    0.0100
0.0100    0.0100    0.0100    0.0100    0.0100    0.0100    0.0100    0.0100
0.0100    0.0100    0.0100    0.0100    0.0100    0.0100    0.0100    0.0100
0.0100    0.0100    0.0100    0.0100    0.0100    0.0100    0.0100    0.0100
0.0100    0.0100    0.0100    0.0100    0.0100    0.0100    0.0100    0.0100
0.0100    0.0100    0.0100    0.0100    0.0100    0.0100    0.0100    0.0100
0.0100    0.0100    0.0100    0.0100    0.0100    0.0100    0.0100    0.0100
0.0100    0.0100    0.0100    0.0100    0.0100    0.0100    0.0100    0.0100
0.0100    0.0100    0.0100    0.0100    0.0100    0.0100    0.0100    0.0100
0.0100    0.0100    0.0100    0.0100    0.0100    0.0100    0.0100    0.0100
0.0100    0.0100    0.0100    0.0100    0.0100    0.0100    0.0100    0.0100
0.0100    0.0100    0.0100    0.0100    0.0100    0.0100    0.0100    0.0100
0.0100    0.0100    0.0100    0.0100    0.0100    0.0100    0.0100    0.0100
0.0100    0.0100    0.0100    0.0100    0.0100    0.0100    0.0100    0.0100
0.0100    0.0100    0.0100    0.0100    0.0100    0.0100    0.0100    0.0100
0.0100    0.0100    0.0100    0.0100    0.0100    0.0100    0.0100    0.0100
0.0100    0.0100    0.0100    0.0100    0.0100    0.0100    0.0100    0.0100
0.0100    0.0100    0.0100    0.0100    0.0100    0.0100    0.0100    0.0100
0.0100    0.0100    0.0100    0.0100    0.0100    0.0100    0.0100    0.0100
0.0100    0.0100    0.0100    0.0100    0.0100    0.0100    0.0100    0.0100
0.0100    0.0100    0.0100    0.0100    0.0100    0.0100    0.0100    0.0100
0.0100    0.0100    0.0100    0.0100    0.0100    0.0100    0.0100    0.0100
0.0100    0.0100    0.0100    0.0100    0.0100    0.0100    0.0100    0.0100
0.0100    0.0100    0.0100    0.0100    0.0100    0.0100    0.0100    0.0100
0.0100    0.0100    0.0100    0.0100    0.0100    0.0100    0.0100    0.0100
0.0100    0.0100    0.0100    0.0100    0.0100    0.0100    0.0100    0.0100
0.0100    0.0100    0.0100    0.0100    0.0100    0.0100    0.0100    0.0100
0.0100    0.0100    0.0100    0.0100    0.0100    0.0100    0.0100    0.0100
0.0100    0.0100    0.0100    0.0100    0.0100    0.0100    0.0100    0.0100
0.0100    0.0100    0.0100    0.0100    0.0100    0.0100    0.0100    0.0100
0.0100    0.0100    0.0100    0.0100    0.0100    0.0100    0.0100    0.0100
0.0100    0.0100    0.0100    0.0100    0.0100    0.0100    0.0100    0.0100
0.0100    0.0100    0.0100    0.0100    0.0100    0.0100    0.0100    0.0100
0.0100    0.0100    0.0100    0.0100    0.0100    0.0100    0.0100    0.0100
0.0100    0.0100    0.0100    0.0100    0.0100    0.0100    0.0100    0.0100
0.0100    0.0100    0.0100    0.0100    0.0100    0.0100    0.0100    0.0100
0.0100    0.0100    0.0100    0.0100    0.0100    0.0100    0.0100    0.0100
0.0100    0.0100    0.0100    0.0100    0.0100    0.0100    0.0100    0.0100
0.0100    0.0100    0.0100    0.0100    0.0100    0.0100    0.0100    0.0100
0.0100    0.0100    0.0100    0.0100    0.0100    0.0100    0.0100    0.0100
0.0100    0.0100    0.0100    0.0100    0.0100    0.0100    0.0100    0.0100
0.0100    0.0100    0.0100    0.0100    0.0100    0.0100    0.0100    0.0100
0.0100    0.0100    0.0100    0.0100    0.0100    0.0100    0.0100    0.0100
0.0100    0.0100    0.0100    0.0100    0.0100    0.0100    0.0100    0.0100
0.0100    0.0100    0.0100    0.0100    0.0100    0.0100    0.0100    0.0100
0.0100    0.0100    0.0100    0.0100    0.0100    0.0100    0.0100    0.0100
0.0100    0.0100    0.0100    0.0100    0.0100    0.0100    0.0100    0.0100
0.0100    0.0100    0.0100    0.0100    0.0100    0.0100    0.0100    0.0100
0.0100    0.0100    0.0100    0.0100    0.0100    0.0100    0.0100    0.0100
0.0100    0.0100    0.0100    0.0100    0.0100    0.0100    0.0100    0.0100
0.0100    0.0100    0.0100    0.0100    0.0100    0.0100    0.0100    0.0100
0.0100    0.0100    0.0100    0.0100    0.0100    0.0100    0.0100    0.0100
0.0100    0.0100    0.0100    0.0100    0.0100    0.0100    0.0100    0.0100
0.0100    0.0100    0.0100    0.0100    0.0100    0.0100    0.0100    0.0100
0.0100    0.0100    0.0100    0.0100    0.0100    0.0100    0.0100    0.0100
0.0100    0.0100    0.0100    0.0100    0.0100    0.0100    0.0100    0.0100
0.0100    0.0100    0.0100    0.0100    0.0100    0.0100    0.0100    0.0100
0.0100    0.0100    0.0100    0.0100    0.0100    0.0100    0.0100    0.0100
0.0100    0.0100    0.0100    0.0100    0.0100    0.0100    0.0100    0.0100
0.0100    0.0100    0.0100    0.0100    0.0100    0.0100    0.0100    0.0100
0.0100    0.0100    0.0100    0.0100    0.0100    0.0100    0.0100    0.0100
0.0100    0.0100    0.0100    0.0100    0.0100    0.0100    0.0100    0.0100
0.0100    0.0100    0.0100    0.0100    0.0100    0.0100    0.0100    0.0100
0.0100    0.0100    0.0100    0.0100    0.0100    0.0100    0.0100    0.0100
0.0100    0.0100    0.0100    0.0100    0.0100    0.0100    0.0100    0.0100
0.0100    0.0100    0.0100    0.0100    0.0100    0.0100    0.0100    0.0100
</PP_RAB>
</PP_MESH>
<PP_LOCAL type="real"  size="600" columns="4">
-3.6571864056E+01   -3.6571447386E+01   -3.6570197254E+01   -3.6568113324E+01
-3.6565194958E+01   -3.6561441120E+01   -3.6556850227E+01   -3.6551419984E+01
-3.6545147180E+01   -3.6538027476E+01   -3.6530055165E+01   -3.6521222944E+01
-3.6511521677E+01   -3.6500940167E+01   -3.6489464949E+01   -3.6477080102E+01
-3.6463767088E+01   -3.6449504621E+01   -3.6434268574E+01   -3.6418031917E+01
-3.6400764705E+01   -3.6382434091E+01   -3.6363004387E+01   -3.6342437162E+01
-3.6320691372E+01   -3.6297723519E+01   -3.6273487848E+01   -3.6247936558E+01
-3.6221020043E+01   -3.6192687133E+01   -3.6162885361E+01   -3.6131561222E+01
-3.6098660438E+01   -3.6064128217E+01   -3.6027909500E+01   -3.5989949206E+01
-3.5950192448E+01   -3.5908584745E+01   -3.5865072213E+01   -3.5819601742E+01
-3.5772121151E+01   -3.5722579336E+01   -3.5670926404E+01   -3.5617113793E+01
-3.5561094394E+01   -3.5502822661E+01   -3.5442254722E+01   -3.5379348497E+01
-3.5314063810E+01   -3.5246362520E+01   -3.5176208646E+01   -3.5103568519E+01
-3.5028410929E+01   -3.4950707301E+01   -3.4870431867E+01   -3.4787561872E+01
-3.4702077773E+01   -3.4613963461E+01   -3.4523206495E+01   -3.4429798334E+01
-3.4333734575E+01   -3.4235015198E+01   -3.4133644786E+01   -3.4029632752E+01
-3.3922993526E+01   -3.3813746730E+01   -3.3701917310E+01   -3.3587535627E+01
-3.3470637508E+01   -3.3351264237E+01   -3.3229462497E+01   -3.3105284253E+01
-3.2978786579E+01   -3.2850031433E+01   -3.2719085378E+01   -3.2586019256E+01
-3.2450907832E+01   -3.2313829393E+01   -3.2174865332E+01   -3.2034099718E+01
-3.1891618849E+01   -3.1747510814E+01   -3.1601865059E+01   -3.1454771966E+01
-3.1306322448E+01   -3.1156607567E+01   -3.1005718174E+01   -3.0853744572E+01
-3.0700776208E+01   -3.0546901383E+01   -3.0392206989E+01   -3.0236778262E+01
-3.0080698557E+01   -2.9924049135E+01   -2.9766908969E+01   -2.9609354551E+01
-2.9451459716E+01   -2.9293295473E+01   -2.9134929835E+01   -2.8976427661E+01
-2.8817850504E+01   -2.8659256455E+01   -2.8500700009E+01   -2.8342231930E+01
-2.8183899133E+01   -2.8025744579E+01   -2.7867807197E+01   -2.7710121827E+01
-2.7552719197E+01   -2.7395625935E+01   -2.7238864637E+01   -2.7082453968E+01
-2.6926408839E+01   -2.6770740636E+01   -2.6615457520E+01   -2.6460564793E+01
-2.6306065342E+01   -2.6151960139E+01   -2.5998248819E+01   -2.5844930294E+01
-2.5692003430E+01   -2.5539467734E+01   -2.5387324066E+01   -2.5235575333E+01
-2.5084227153E+01   -2.4933288470E+01   -2.4782772077E+01   -2.4632695051E+01
-2.4483079046E+01   -2.4333950451E+01   -2.4185340367E+01   -2.4037284408E+01
-2.3889822292E+01   -2.3742997227E+01   -2.3596855076E+01   -2.3451443303E+01
-2.3306809715E+01   -2.3163001007E+01   -2.3020061141E+01   -2.2878029628E+01
-2.2736939732E+01   -2.2596816733E+01   -2.2457676301E+01   -2.2319523143E+01
-2.2182350005E+01   -2.2046137227E+01   -2.1910852864E+01   -2.1776453609E+01
-2.1642886406E+01   -2.1510090875E+01   -2.1378002409E+01   -2.1246555773E+01
-2.1115689064E+01   -2.0985347698E+01   -2.0855488139E+01   -2.0726081163E+01
-2.0597114237E+01   -2.0468593036E+01   -2.0340541786E+01   -2.0213002588E+01
-2.0086033700E+01   -1.9959707026E+01   -1.9834104944E+01   -1.9709316889E+01
-1.9585435704E+01   -1.9462554343E+01   -1.9340762687E+01   -1.9220145107E+01
-1.9100778327E+01   -1.8982730108E+01   -1.8866058308E+01   -1.8750810545E+01
-1.8637024265E+01   -1.8524727134E+01   -1.8413937195E+01   -1.8304664181E+01
-1.8196910583E+01   -1.8090671371E+01   -1.7985937170E+01   -1.7882690496E+01
-1.7780897701E+01   -1.7680510403E+01   -1.7581468104E+01   -1.7483702578E+01
-1.7387159105E+01   -1.7291814038E+01   -1.7197654381E+01   -1.7104666810E+01
-1.7012839427E+01   -1.6922149895E+01   -1.6832569483E+01   -1.6744070635E+01
-1.6656626850E+01   -1.6570206538E+01   -1.6484770647E+01   -1.6400281908E+01
-1.6316716437E+01   -1.6234054398E+01   -1.6152278990E+01   -1.6071374898E+01
-1.5991325410E+01   -1.5912109407E+01   -1.5833705457E+01   -1.5756096878E+01
-1.5679267910E+01   -1.5603202757E+01   -1.5527885376E+01   -1.5453300321E+01
-1.5379433043E+01   -1.5306269469E+01   -1.5233796029E+01   -1.5161999661E+01
-1.5090867812E+01   -1.5020388436E+01   -1.4950549972E+01   -1.4881341331E+01
-1.4812751889E+01   -1.4744771454E+01   -1.4677390319E+01   -1.4610599158E+01
-1.4544389029E+01   -1.4478751353E+01   -1.4413678026E+01   -1.4349161001E+01
-1.4285192809E+01   -1.4221766807E+01   -1.4158877618E+01   -1.4096520597E+01
-1.4034692310E+01   -1.3973390289E+01   -1.3912612097E+01   -1.3852353319E+01
-1.3792608548E+01   -1.3733371825E+01   -1.3674637138E+01   -1.3616398356E+01
-1.3558649603E+01   -1.3501386287E+01   -1.3444603922E+01   -1.3388297826E+01
-1.3332462663E+01   -1.3277093143E+01   -1.3222184130E+01   -1.3167730665E+01
-1.3113727773E+01   -1.3060170431E+01   -1.3007053599E+01   -1.2954372242E+01
-1.2902121333E+01   -1.2850295853E+01   -1.2798890782E+01   -1.2747901112E+01
-1.2697321841E+01   -1.2647147983E+01   -1.2597374570E+01   -1.2547996655E+01
-1.2499009321E+01   -1.2450407678E+01   -1.2402186878E+01   -1.2354342109E+01
-1.2306868609E+01   -1.2259761666E+01   -1.2213016624E+01   -1.2166628889E+01
-1.2120593929E+01   -1.2074907283E+01   -1.2029564563E+01   -1.1984561457E+01
-1.1939893729E+01   -1.1895557230E+01   -1.1851547891E+01   -1.1807861730E+01
-1.1764494854E+01   -1.1721443454E+01   -1.1678703814E+01   -1.1636272304E+01
-1.1594145382E+01   -1.1552319594E+01   -1.1510791574E+01   -1.1469558038E+01
-1.1428615786E+01   -1.1387961697E+01   -1.1347592730E+01   -1.1307505918E+01
-1.1267698366E+01   -1.1228167248E+01   -1.1188909802E+01   -1.1149923330E+01
-1.1111205190E+01   -1.1072752796E+01   -1.1034563611E+01   -1.0996635146E+01
-1.0958964955E+01   -1.0921550631E+01   -1.0884389802E+01   -1.0847480131E+01
-1.0810819309E+01   -1.0774405051E+01   -1.0738235099E+01   -1.0702307214E+01
-1.0666619174E+01   -1.0631168775E+01   -1.0595953827E+01   -1.0560972151E+01
-1.0526221581E+01   -1.0491699960E+01   -1.0457405140E+01   -1.0423334984E+01
-1.0389487360E+01   -1.0355860147E+01   -1.0322451231E+01   -1.0289258508E+01
-1.0256279882E+01   -1.0223513270E+01   -1.0190956596E+01   -1.0158607800E+01
-1.0126464834E+01   -1.0094525664E+01   -1.0062788271E+01   -1.0031250657E+01
-9.9999108378E+00   -9.9687668525E+00   -9.9378167603E+00   -9.9070586431E+00
-9.8764906067E+00   -9.8461107813E+00   -9.8159173238E+00   -9.7859084178E+00
-9.7560822742E+00   -9.7264371315E+00   -9.6969712606E+00   -9.6676829597E+00
-9.6385705611E+00   -9.6096324386E+00   -9.5808669396E+00   -9.5522724705E+00
-9.5238474487E+00   -9.4955902746E+00   -9.4674996810E+00   -9.4395742786E+00
-9.4118127086E+00   -9.3842137424E+00   -9.3567753463E+00   -9.3294958025E+00
-9.3023734318E+00   -9.2754063853E+00   -9.2485938823E+00   -9.2219349406E+00
-9.1954286974E+00   -9.1690743358E+00   -9.1428711062E+00   -9.1168181919E+00
-9.0909146693E+00   -9.0651598720E+00   -9.0395520798E+00   -9.0140895024E+00
-8.9887704182E+00   -8.9635928072E+00   -8.9385552524E+00   -8.9136568453E+00
-8.8888965087E+00   -8.8642733131E+00   -8.8397863876E+00   -8.8154344154E+00
-8.7912162826E+00   -8.7671308726E+00   -8.7431770190E+00   -8.7193536917E+00
-8.6956598313E+00   -8.6720943857E+00   -8.6486563167E+00   -8.6253445946E+00
-8.6021581997E+00   -8.5790961242E+00   -8.5561573711E+00   -8.5333409542E+00
-8.5106458975E+00   -8.4880712354E+00   -8.4656160128E+00   -8.4432792843E+00
-8.4210601147E+00   -8.3989575784E+00   -8.3769707596E+00   -8.3550987522E+00
-8.3333406593E+00   -8.3116955933E+00   -8.2901626760E+00   -8.2687410382E+00
-8.2474298194E+00   -8.2262281684E+00   -8.2051352423E+00   -8.1841502071E+00
-8.1632722372E+00   -8.1425005153E+00   -8.1218342325E+00   -8.1012725882E+00
-8.0808147897E+00   -8.0604600524E+00   -8.0402075994E+00   -8.0200566618E+00
-8.0000064782E+00   -7.9800562950E+00   -7.9602053660E+00   -7.9404529523E+00
-7.9207983225E+00   -7.9012407522E+00   -7.8817795243E+00   -7.8624139288E+00
-7.8431432624E+00   -7.8239668289E+00   -7.8048839389E+00   -7.7858939096E+00
-7.7669960648E+00   -7.7481897349E+00   -7.7294742569E+00   -7.7108489739E+00
-7.6923132356E+00   -7.6738663978E+00   -7.6555078225E+00   -7.6372368777E+00
-7.6190529375E+00   -7.6009553820E+00   -7.5829435970E+00   -7.5650169743E+00
-7.5471749114E+00   -7.5294168113E+00   -7.5117420827E+00   -7.4941501400E+00
-7.4766404029E+00   -7.4592122965E+00   -7.4418652513E+00   -7.4245987031E+00
-7.4074120929E+00   -7.3903048668E+00   -7.3732764762E+00   -7.3563263773E+00
-7.3394540315E+00   -7.3226589050E+00   -7.3059404688E+00   -7.2892981989E+00
-7.2727315761E+00   -7.2562400856E+00   -7.2398232176E+00   -7.2234804666E+00
-7.2072113321E+00   -7.1910153175E+00   -7.1748919311E+00   -7.1588406855E+00
-7.1428610976E+00   -7.1269526886E+00   -7.1111149840E+00   -7.0953475134E+00
-7.0796498107E+00   -7.0640214139E+00   -7.0484618650E+00   -7.0329707101E+00
-7.0175474992E+00   -7.0021917862E+00   -6.9869031291E+00   -6.9716810895E+00
-6.9565252331E+00   -6.9414351291E+00   -6.9264103506E+00   -6.9114504742E+00
-6.8965550804E+00   -6.8817237532E+00   -6.8669560800E+00   -6.8522516520E+00
-6.8376100638E+00   -6.8230309134E+00   -6.8085138022E+00   -6.7940583351E+00
-6.7796641204E+00   -6.7653307694E+00   -6.7510578970E+00   -6.7368451212E+00
-6.7226920633E+00   -6.7085983477E+00   -6.6945636019E+00   -6.6805874566E+00
-6.6666695455E+00   -6.6528095054E+00   -6.6390069762E+00   -6.6252616006E+00
-6.6115730244E+00   -6.5979408962E+00   -6.5843648675E+00   -6.5708445929E+00
-6.5573797295E+00   -6.5439699374E+00   -6.5306148794E+00   -6.5173142212E+00
-6.5040676309E+00   -6.4908747795E+00   -6.4777353408E+00   -6.4646489910E+00
-6.4516154090E+00   -6.4386342763E+00   -6.4257052769E+00   -6.4128280973E+00
-6.4000024268E+00   -6.3872279567E+00   -6.3745043813E+00   -6.3618313968E+00
-6.3492087021E+00   -6.3366359986E+00   -6.3241129898E+00   -6.3116393816E+00
-6.2992148824E+00   -6.2868392026E+00   -6.2745120551E+00   -6.2622331550E+00
-6.2500022196E+00   -6.2378189683E+00   -6.2256831229E+00   -6.2135944072E+00
-6.2015525471E+00   -6.1895572709E+00   -6.1776083087E+00   -6.1657053927E+00
-6.1538482574E+00   -6.1420366392E+00   -6.1302702763E+00   -6.1185489093E+00
-6.1068722805E+00   -6.0952401343E+00   -6.0836522169E+00   -6.0721082766E+00
-6.0606080636E+00   -6.0491513297E+00   -6.0377378290E+00   -6.0263673172E+00
-6.0150395518E+00   -6.0037542922E+00   -5.9925112997E+00   -5.9813103372E+00
-5.9701511695E+00   -5.9590335631E+00   -5.9479572862E+00   -5.9369221088E+00
-5.9259278025E+00   -5.9149741408E+00   -5.9040608986E+00   -5.8931878527E+00
-5.8823547813E+00   -5.8715614644E+00   -5.8608076836E+00   -5.8500932221E+00
-5.8394178645E+00   -5.8287813973E+00   -5.8181836082E+00   -5.8076242867E+00
-5.7971032237E+00   -5.7866202117E+00   -5.7761750446E+00   -5.7657675178E+00
-5.7553974282E+00   -5.7450645743E+00   -5.7347687558E+00   -5.7245097739E+00
-5.7142874314E+00   -5.7041015322E+00   -5.6939518818E+00   -5.6838382871E+00
-5.6737605564E+00   -5.6637184990E+00   -5.6537119261E+00   -5.6437406497E+00
-5.6338044836E+00   -5.6239032426E+00   -5.6140367428E+00   -5.6042048017E+00
-5.5944072381E+00   -5.5846438721E+00   -5.5749145247E+00   -5.5652190187E+00
-5.5555571776E+00   -5.5459288265E+00   -5.5363337916E+00   -5.5267719002E+00
-5.5172429808E+00   -5.5077468633E+00   -5.4982833786E+00   -5.4888523587E+00
-5.4794536368E+00   -5.4700870474E+00   -5.4607524259E+00   -5.4514496089E+00
-5.4421784342E+00   -5.4329387406E+00   -5.4237303680E+00   -5.4145531575E+00
-5.4054069511E+00   -5.3962915919E+00   -5.3872069242E+00   -5.3781527933E+00
-5.3691290454E+00   -5.3601355278E+00   -5.3511720888E+00   -5.3422385779E+00
</PP_LOCAL>
<PP_NONLOCAL>
<PP_BETA.1
type="real"
size="600"
columns="4"
index="1"
angular_momentum="0"
cutoff_radius_index=" 232"
cutoff_radius="    2.3100000000E+00" >
-4.8265280661E-12    1.9616859055E-02    3.9233356354E-02    5.8849129784E-02
7.8463816377E-02    9.8077051512E-02    1.1768846771E-01    1.3729769282E-01
1.5690434757E-01    1.7650804221E-01    1.9610837230E-01    2.1570491333E-01
2.3529721430E-01    2.5488478995E-01    2.7446711171E-01    2.9404359722E-01
3.1361359840E-01    3.3317638807E-01    3.5273114491E-01    3.7227693703E-01
3.9181270389E-01    4.1133723672E-01    4.3084915751E-01    4.5034689644E-01
4.6982866802E-01    4.8929244592E-01    5.0873593655E-01    5.2815655161E-01
5.4755137963E-01    5.6691715671E-01    5.8625023661E-01    6.0554656034E-01
6.2480162540E-01    6.4401045498E-01    6.6316756720E-01    6.8226694470E-01
7.0130200471E-01    7.2026556996E-01    7.3914984057E-01    7.5794636716E-01
7.7664602555E-01    7.9523899313E-01    8.1371472732E-01    8.3206194619E-01
8.5026861172E-01    8.6832191569E-01    8.8620826864E-01    9.0391329199E-01
9.2142181369E-01    9.3871786744E-01    9.5578469579E-01    9.7260475731E-01
9.8915973789E-01    1.0054305665E+00    1.0213974353E+00    1.0370398244E+00
1.0523365316E+00    1.0672657060E+00    1.0818048878E+00    1.0959310515E+00
1.1096206546E+00    1.1228496916E+00    1.1355937513E+00    1.1478280799E+00
1.1595276484E+00    1.1706672239E+00    1.1812214454E+00    1.1911649038E+00
1.2004722250E+00    1.2091181570E+00    1.2170776604E+00    1.2243260008E+00
1.2308388451E+00    1.2365923588E+00    1.2415633057E+00    1.2457291492E+00
1.2490681539E+00    1.2515594882E+00    1.2531833270E+00    1.2539209540E+00
1.2537548626E+00    1.2526688562E+00    1.2506481460E+00    1.2476794470E+00
1.2437510704E+00    1.2388530133E+00    1.2329770442E+00    1.2261167838E+00
1.2182677815E+00    1.2094275865E+00    1.1995958124E+00    1.1887741963E+00
1.1769666510E+00    1.1641793100E+00    1.1504205652E+00    1.1357010967E+00
1.1200338946E+00    1.1034342723E+00    1.0859198713E+00    1.0675106572E+00
1.0482289064E+00    1.0280991839E+00    1.0071483119E+00    9.8540532887E-01
9.6290143983E-01    9.3966995680E-01    9.1574623054E-01    8.9116757314E-01
8.6597317181E-01    8.4020399406E-01    8.1390268461E-01    7.8711345425E-01
7.5988196110E-01    7.3225518463E-01    7.0428129294E-01    6.7600950361E-01
6.4748993898E-01    6.1877347604E-01    5.8991159179E-01    5.6095620461E-01
5.3195951218E-01    5.0297382691E-01    4.7405140916E-01    4.4524429945E-01
4.1660414989E-01    3.8818205601E-01    3.6002838942E-01    3.3219263225E-01
3.0472321396E-01    2.7766735145E-01    2.5107089297E-01    2.2497816684E-01
1.9943183542E-01    1.7447275516E-01    1.5013984342E-01    1.2646995264E-01
1.0349775240E-01    8.1255620108E-02    5.9773540765E-02    3.9079016240E-02
1.9196984645E-02    1.4975008311E-04   -1.8043076751E-02   -3.5364626906E-02
-5.1800810147E-02   -6.7340340322E-02   -8.1974749101E-02   -9.5698387808E-02
-1.0850841750E-01   -1.2040478719E-01   -1.3139020032E-01   -1.4147006968E-01
-1.5065246084E-01   -1.5894802452E-01   -1.6636991800E-01   -1.7293371610E-01
-1.7865731199E-01   -1.8356080846E-01   -1.8766639991E-01   -1.9099824585E-01
-1.9358233637E-01   -1.9544635015E-01   -1.9661950589E-01   -1.9713240750E-01
-1.9701688421E-01   -1.9630582591E-01   -1.9503301481E-01   -1.9323295396E-01
-1.9094069366E-01   -1.8819165635E-01   -1.8502146083E-01   -1.8146574676E-01
-1.7756000001E-01   -1.7333937988E-01   -1.6883854868E-01   -1.6409150396E-01
-1.5913141923E-01   -1.5399047404E-01   -1.4869972843E-01   -1.4328896326E-01
-1.3778647435E-01   -1.3221901693E-01   -1.2661184920E-01   -1.2098875764E-01
-1.1537214963E-01   -1.0978316001E-01   -1.0424155382E-01   -9.8765678267E-02
-9.3372487264E-02   -8.8077520844E-02   -8.2894908858E-02   -7.7837378351E-02
-7.2916267232E-02   -6.8141544723E-02   -6.3521837935E-02   -5.9064465144E-02
-5.4775474284E-02   -5.0659688002E-02   -4.6720753401E-02   -4.2961197316E-02
-3.9382486176E-02   -3.5985090002E-02   -3.2768550697E-02   -2.9731553233E-02
-2.6872000269E-02   -2.4187088903E-02   -2.1673389433E-02   -1.9326925574E-02
-1.7143255431E-02   -1.5117552816E-02   -1.3244688391E-02   -1.1519309921E-02