<UPF version="2.0.1">
<PP_INFO>
NOTE!!!!
This file is trimmed with a mesh size of 600 from the original version.
Trimming performed at 2023-03-31 09:10:05.160194 by trim_upf.py version 0.1.0

This pseudopotential file has been produced using the code
ONCVPSP  (Optimized Norm-Conservinng Vanderbilt PSeudopotential)
scalar-relativistic version 3.3.0 08/16/2017 by D. R. Hamann
The code is available through a link at URL www.mat-simresearch.com.
Documentation with the package provides a full discription of the
input data below.
While it is not required under the terms of the GNU GPL, it is
suggested that you cite D. R. Hamann, Phys. Rev. B 88, 085117 (2013)
in any publication using these pseudopotentials.
<PP_INPUTFILE>
# ATOM AND REFERENCE CONFIGURATION
# atsym  z   nc   nv     iexc    psfile
Ti 22.00    3    4       4      upf
#
#   n    l    f        energy (Ha)
1    0    2.00
2    0    2.00
2    1    6.00
3    0    2.00
3    1    6.00
3    2    2.00
4    0    2.00
#
# PSEUDOPOTENTIAL AND OPTIMIZATION
# lmax
2
#
#   l,   rc,      ep,       ncon, nbas, qcut
0   1.35000  -2.30174    4    8   8.60000
1   1.30000  -1.42811    4    8   9.00000
2   1.65000  -0.15651    4    8   9.00000
#
# LOCAL POTENTIAL
# lloc, lpopt,  rc(5),   dvloc0
4    5   1.30000      0.00000
#
# VANDERBILT-KLEINMAN-BYLANDER PROJECTORs
# l, nproj, debl
0    2   2.13758
1    2   2.00000
2    2   1.50000
#
# MODEL CORE CHARGE
# icmod, fcfact, rcfact
3   2.50000   1.40000
#
# LOG DERIVATIVE ANALYSIS
# epsh1, epsh2, depsh
-12.00   12.00    0.02
#
# OUTPUT GRID
# rlmax, drl
6.00    0.01
#
# TEST CONFIGURATIONS
# ncnf
0
# nvcnf
#   n    l    f
</PP_INPUTFILE>
</PP_INFO>
<!--                               -->
<!-- END OF HUMAN READABLE SECTION -->
<!--                               -->
<PP_HEADER
generated="Generated using ONCVPSP code by D. R. Hamann"
author="anonymous"
date="171031"
comment=""
element="Ti"
pseudo_type="NC"
relativistic="scalar"
is_ultrasoft="F"
is_paw="F"
is_coulomb="F"
has_so="F"
has_wfc="F"
has_gipaw="F"
core_correction="T"
functional="PBE"
z_valence="   12.00"
total_psenergy="  -1.16134142969E+02"
rho_cutoff="   1.58500000000E+01"
l_max="2"
l_local="-1"
mesh_size="   600"
number_of_wfc="4"
number_of_proj="6"/>
<PP_MESH>
<PP_R type="real"  size="600" columns="8">
0.0000    0.0100    0.0200    0.0300    0.0400    0.0500    0.0600    0.0700
0.0800    0.0900    0.1000    0.1100    0.1200    0.1300    0.1400    0.1500
0.1600    0.1700    0.1800    0.1900    0.2000    0.2100    0.2200    0.2300
0.2400    0.2500    0.2600    0.2700    0.2800    0.2900    0.3000    0.3100
0.3200    0.3300    0.3400    0.3500    0.3600    0.3700    0.3800    0.3900
0.4000    0.4100    0.4200    0.4300    0.4400    0.4500    0.4600    0.4700
0.4800    0.4900    0.5000    0.5100    0.5200    0.5300    0.5400    0.5500
0.5600    0.5700    0.5800    0.5900    0.6000    0.6100    0.6200    0.6300
0.6400    0.6500    0.6600    0.6700    0.6800    0.6900    0.7000    0.7100
0.7200    0.7300    0.7400    0.7500    0.7600    0.7700    0.7800    0.7900
0.8000    0.8100    0.8200    0.8300    0.8400    0.8500    0.8600    0.8700
0.8800    0.8900    0.9000    0.9100    0.9200    0.9300    0.9400    0.9500
0.9600    0.9700    0.9800    0.9900    1.0000    1.0100    1.0200    1.0300
1.0400    1.0500    1.0600    1.0700    1.0800    1.0900    1.1000    1.1100
1.1200    1.1300    1.1400    1.1500    1.1600    1.1700    1.1800    1.1900
1.2000    1.2100    1.2200    1.2300    1.2400    1.2500    1.2600    1.2700
1.2800    1.2900    1.3000    1.3100    1.3200    1.3300    1.3400    1.3500
1.3600    1.3700    1.3800    1.3900    1.4000    1.4100    1.4200    1.4300
1.4400    1.4500    1.4600    1.4700    1.4800    1.4900    1.5000    1.5100
1.5200    1.5300    1.5400    1.5500    1.5600    1.5700    1.5800    1.5900
1.6000    1.6100    1.6200    1.6300    1.6400    1.6500    1.6600    1.6700
1.6800    1.6900    1.7000    1.7100    1.7200    1.7300    1.7400    1.7500
1.7600    1.7700    1.7800    1.7900    1.8000    1.8100    1.8200    1.8300
1.8400    1.8500    1.8600    1.8700    1.8800    1.8900    1.9000    1.9100
1.9200    1.9300    1.9400    1.9500    1.9600    1.9700    1.9800    1.9900
2.0000    2.0100    2.0200    2.0300    2.0400    2.0500    2.0600    2.0700
2.0800    2.0900    2.1000    2.1100    2.1200    2.1300    2.1400    2.1500
2.1600    2.1700    2.1800    2.1900    2.2000    2.2100    2.2200    2.2300
2.2400    2.2500    2.2600    2.2700    2.2800    2.2900    2.3000    2.3100
2.3200    2.3300    2.3400    2.3500    2.3600    2.3700    2.3800    2.3900
2.4000    2.4100    2.4200    2.4300    2.4400    2.4500    2.4600    2.4700
2.4800    2.4900    2.5000    2.5100    2.5200    2.5300    2.5400    2.5500
2.5600    2.5700    2.5800    2.5900    2.6000    2.6100    2.6200    2.6300
2.6400    2.6500    2.6600    2.6700    2.6800    2.6900    2.7000    2.7100
2.7200    2.7300    2.7400    2.7500    2.7600    2.7700    2.7800    2.7900
2.8000    2.8100    2.8200    2.8300    2.8400    2.8500    2.8600    2.8700
2.8800    2.8900    2.9000    2.9100    2.9200    2.9300    2.9400    2.9500
2.9600    2.9700    2.9800    2.9900    3.0000    3.0100    3.0200    3.0300
3.0400    3.0500    3.0600    3.0700    3.0800    3.0900    3.1000    3.1100
3.1200    3.1300    3.1400    3.1500    3.1600    3.1700    3.1800    3.1900
3.2000    3.2100    3.2200    3.2300    3.2400    3.2500    3.2600    3.2700
3.2800    3.2900    3.3000    3.3100    3.3200    3.3300    3.3400    3.3500
3.3600    3.3700    3.3800    3.3900    3.4000    3.4100    3.4200    3.4300
3.4400    3.4500    3.4600    3.4700    3.4800    3.4900    3.5000    3.5100
3.5200    3.5300    3.5400    3.5500    3.5600    3.5700    3.5800    3.5900
3.6000    3.6100    3.6200    3.6300    3.6400    3.6500    3.6600    3.6700
3.6800    3.6900    3.7000    3.7100    3.7200    3.7300    3.7400    3.7500
3.7600    3.7700    3.7800    3.7900    3.8000    3.8100    3.8200    3.8300
3.8400    3.8500    3.8600    3.8700    3.8800    3.8900    3.9000    3.9100
3.9200    3.9300    3.9400    3.9500    3.9600    3.9700    3.9800    3.9900
4.0000    4.0100    4.0200    4.0300    4.0400    4.0500    4.0600    4.0700
4.0800    4.0900    4.1000    4.1100    4.1200    4.1300    4.1400    4.1500
4.1600    4.1700    4.1800    4.1900    4.2000    4.2100    4.2200    4.2300
4.2400    4.2500    4.2600    4.2700    4.2800    4.2900    4.3000    4.3100
4.3200    4.3300    4.3400    4.3500    4.3600    4.3700    4.3800    4.3900
4.4000    4.4100    4.4200    4.4300    4.4400    4.4500    4.4600    4.4700
4.4800    4.4900    4.5000    4.5100    4.5200    4.5300    4.5400    4.5500
4.5600    4.5700    4.5800    4.5900    4.6000    4.6100    4.6200    4.6300
4.6400    4.6500    4.6600    4.6700    4.6800    4.6900    4.7000    4.7100
4.7200    4.7300    4.7400    4.7500    4.7600    4.7700    4.7800    4.7900
4.8000    4.8100    4.8200    4.8300    4.8400    4.8500    4.8600    4.8700
4.8800    4.8900    4.9000    4.9100    4.9200    4.9300    4.9400    4.9500
4.9600    4.9700    4.9800    4.9900    5.0000    5.0100    5.0200    5.0300
5.0400    5.0500    5.0600    5.0700    5.0800    5.0900    5.1000    5.1100
5.1200    5.1300    5.1400    5.1500    5.1600    5.1700    5.1800    5.1900
5.2000    5.2100    5.2200    5.2300    5.2400    5.2500    5.2600    5.2700
5.2800    5.2900    5.3000    5.3100    5.3200    5.3300    5.3400    5.3500
5.3600    5.3700    5.3800    5.3900    5.4000    5.4100    5.4200    5.4300
5.4400    5.4500    5.4600    5.4700    5.4800    5.4900    5.5000    5.5100
5.5200    5.5300    5.5400    5.5500    5.5600    5.5700    5.5800    5.5900
5.6000    5.6100    5.6200    5.6300    5.6400    5.6500    5.6600    5.6700
5.6800    5.6900    5.7000    5.7100    5.7200    5.7300    5.7400    5.7500
5.7600    5.7700    5.7800    5.7900    5.8000    5.8100    5.8200    5.8300
5.8400    5.8500    5.8600    5.8700    5.8800    5.8900    5.9000    5.9100
5.9200    5.9300    5.9400    5.9500    5.9600    5.9700    5.9800    5.9900
</PP_R>
<PP_RAB type="real"  size="600" columns="8">
0.0100    0.0100    0.0100    0.0100    0.0100    0.0100    0.0100    0.0100
0.0100    0.0100    0.0100    0.0100    0.0100    0.0100    0.0100    0.0100
0.0100    0.0100    0.0100    0.0100    0.0100    0.0100    0.0100    0.0100
0.0100    0.0100    0.0100    0.0100    0.0100    0.0100    0.0100    0.0100
0.0100    0.0100    0.0100    0.0100    0.0100    0.0100    0.0100    0.0100
0.0100    0.0100    0.0100    0.0100    0.0100    0.0100    0.0100    0.0100
0.0100    0.0100    0.0100    0.0100    0.0100    0.0100    0.0100    0.0100
0.0100    0.0100    0.0100    0.0100    0.0100    0.0100    0.0100    0.0100
0.0100    0.0100    0.0100    0.0100    0.0100    0.0100    0.0100    0.0100
0.0100    0.0100    0.0100    0.0100    0.0100    0.0100    0.0100    0.0100
0.0100    0.0100    0.0100    0.0100    0.0100    0.0100    0.0100    0.0100
0.0100    0.0100    0.0100    0.0100    0.0100    0.0100    0.0100    0.0100
0.0100    0.0100    0.0100    0.0100    0.0100    0.0100    0.0100    0.0100
0.0100    0.0100    0.0100    0.0100    0.0100    0.0100    0.0100    0.0100
0.0100    0.0100    0.0100    0.0100    0.0100    0.0100    0.0100    0.0100
0.0100    0.0100    0.0100    0.0100    0.0100    0.0100    0.0100    0.0100
0.0100    0.0100    0.0100    0.0100    0.0100    0.0100    0.0100    0.0100
0.0100    0.0100    0.0100    0.0100    0.0100    0.0100    0.0100    0.0100
0.0100    0.0100    0.0100    0.0100    0.0100    0.0100    0.0100    0.0100
0.0100    0.0100    0.0100    0.0100    0.0100    0.0100    0.0100    0.0100
0.0100    0.0100    0.0100    0.0100    0.0100    0.0100    0.0100    0.0100
0.0100    0.0100    0.0100    0.0100    0.0100    0.0100    0.0100    0.0100
0.0100    0.0100    0.0100    0.0100    0.0100    0.0100    0.0100    0.0100
0.0100    0.0100    0.0100    0.0100    0.0100    0.0100    0.0100    0.0100
0.0100    0.0100    0.0100    0.0100    0.0100    0.0100    0.0100    0.0100
0.0100    0.0100    0.0100    0.0100    0.0100    0.0100    0.0100    0.0100
0.0100    0.0100    0.0100    0.0100    0.0100    0.0100    0.0100    0.0100
0.0100    0.0100    0.0100    0.0100    0.0100    0.0100    0.0100    0.0100
0.0100    0.0100    0.0100    0.0100    0.0100    0.0100    0.0100    0.0100
0.0100    0.0100    0.0100    0.0100    0.0100    0.0100    0.0100    0.0100
0.0100    0.0100    0.0100    0.0100    0.0100    0.0100    0.0100    0.0100
0.0100    0.0100    0.0100    0.0100    0.0100    0.0100    0.0100    0.0100
0.0100    0.0100    0.0100    0.0100    0.0100    0.0100    0.0100    0.0100
0.0100    0.0100    0.0100    0.0100    0.0100    0.0100    0.0100    0.0100
0.0100    0.0100    0.0100    0.0100    0.0100    0.0100    0.0100    0.0100
0.0100    0.0100    0.0100    0.0100    0.0100    0.0100    0.0100    0.0100
0.0100    0.0100    0.0100    0.0100    0.0100    0.0100    0.0100    0.0100
0.0100    0.0100    0.0100    0.0100    0.0100    0.0100    0.0100    0.0100
0.0100    0.0100    0.0100    0.0100    0.0100    0.0100    0.0100    0.0100
0.0100    0.0100    0.0100    0.0100    0.0100    0.0100    0.0100    0.0100
0.0100    0.0100    0.0100    0.0100    0.0100    0.0100    0.0100    0.0100
0.0100    0.0100    0.0100    0.0100    0.0100    0.0100    0.0100    0.0100
0.0100    0.0100    0.0100    0.0100    0.0100    0.0100    0.0100    0.0100
0.0100    0.0100    0.0100    0.0100    0.0100    0.0100    0.0100    0.0100
0.0100    0.0100    0.0100    0.0100    0.0100    0.0100    0.0100    0.0100
0.0100    0.0100    0.0100    0.0100    0.0100    0.0100    0.0100    0.0100
0.0100    0.0100    0.0100    0.0100    0.0100    0.0100    0.0100    0.0100
0.0100    0.0100    0.0100    0.0100    0.0100    0.0100    0.0100    0.0100
0.0100    0.0100    0.0100    0.0100    0.0100    0.0100    0.0100    0.0100
0.0100    0.0100    0.0100    0.0100    0.0100    0.0100    0.0100    0.0100
0.0100    0.0100    0.0100    0.0100    0.0100    0.0100    0.0100    0.0100
0.0100    0.0100    0.0100    0.0100    0.0100    0.0100    0.0100    0.0100
0.0100    0.0100    0.0100    0.0100    0.0100    0.0100    0.0100    0.0100
0.0100    0.0100    0.0100    0.0100    0.0100    0.0100    0.0100    0.0100
0.0100    0.0100    0.0100    0.0100    0.0100    0.0100    0.0100    0.0100
0.0100    0.0100    0.0100    0.0100    0.0100    0.0100    0.0100    0.0100
0.0100    0.0100    0.0100    0.0100    0.0100    0.0100    0.0100    0.0100
0.0100    0.0100    0.0100    0.0100    0.0100    0.0100    0.0100    0.0100
0.0100    0.0100    0.0100    0.0100    0.0100    0.0100    0.0100    0.0100
0.0100    0.0100    0.0100    0.0100    0.0100    0.0100    0.0100    0.0100
0.0100    0.0100    0.0100    0.0100    0.0100    0.0100    0.0100    0.0100
0.0100    0.0100    0.0100    0.0100    0.0100    0.0100    0.0100    0.0100
0.0100    0.0100    0.0100    0.0100    0.0100    0.0100    0.0100    0.0100
0.0100    0.0100    0.0100    0.0100    0.0100    0.0100    0.0100    0.0100
0.0100    0.0100    0.0100    0.0100    0.0100    0.0100    0.0100    0.0100
0.0100    0.0100    0.0100    0.0100    0.0100    0.0100    0.0100    0.0100
0.0100    0.0100    0.0100    0.0100    0.0100    0.0100    0.0100    0.0100
0.0100    0.0100    0.0100    0.0100    0.0100    0.0100    0.0100    0.0100
0.0100    0.0100    0.0100    0.0100    0.0100    0.0100    0.0100    0.0100
0.0100    0.0100    0.0100    0.0100    0.0100    0.0100    0.0100    0.0100
0.0100    0.0100    0.0100    0.0100    0.0100    0.0100    0.0100    0.0100
0.0100    0.0100    0.0100    0.0100    0.0100    0.0100    0.0100    0.0100
0.0100    0.0100    0.0100    0.0100    0.0100    0.0100    0.0100    0.0100
0.0100    0.0100    0.0100    0.0100    0.0100    0.0100    0.0100    0.0100
0.0100    0.0100    0.0100    0.0100    0.0100    0.0100    0.0100    0.0100
</PP_RAB>
</PP_MESH>
<PP_LOCAL type="real"  size="600" columns="4">
-3.8416237167E+01   -3.8414618117E+01   -3.8409759046E+01   -3.8401666053E+01
-3.8390348076E+01   -3.8375816898E+01   -3.8358086815E+01   -3.8337174091E+01
-3.8313096322E+01   -3.8285871755E+01   -3.8255518569E+01   -3.8222054166E+01
-3.8185494480E+01   -3.8145853336E+01   -3.8103141868E+01   -3.8057368011E+01
-3.8008536082E+01   -3.7956646452E+01   -3.7901695310E+01   -3.7843674530E+01
-3.7782571619E+01   -3.7718369767E+01   -3.7651047968E+01   -3.7580581231E+01
-3.7506940853E+01   -3.7430094763E+01   -3.7350007922E+01   -3.7266642781E+01
-3.7179959779E+01   -3.7089917898E+01   -3.6996475236E+01   -3.6899589636E+01
-3.6799219320E+01   -3.6695323563E+01   -3.6587863368E+01   -3.6476802156E+01
-3.6362106447E+01   -3.6243746532E+01   -3.6121697118E+01   -3.5995937932E+01
-3.5866454282E+01   -3.5733237541E+01   -3.5596285566E+01   -3.5455603016E+01
-3.5311201582E+01   -3.5163100109E+01   -3.5011324614E+01   -3.4855908200E+01
-3.4696890873E+01   -3.4534319278E+01   -3.4368246357E+01   -3.4198730962E+01
-3.4025837421E+01   -3.3849635099E+01   -3.3670197952E+01   -3.3487604103E+01
-3.3301935448E+01   -3.3113277300E+01   -3.2921718089E+01   -3.2727349106E+01
-3.2530264297E+01   -3.2330560120E+01   -3.2128335427E+01   -3.1923691402E+01
-3.1716731518E+01   -3.1507561529E+01   -3.1296289465E+01   -3.1083025643E+01
-3.0867882674E+01   -3.0650975458E+01   -3.0432421169E+01   -3.0212339208E+01
-2.9990851137E+01   -2.9768080572E+01   -2.9544153045E+01   -2.9319195827E+01
-2.9093337714E+01   -2.8866708773E+01   -2.8639440057E+01   -2.8411663296E+01
-2.8183510553E+01   -2.7955113870E+01   -2.7726604897E+01   -2.7498114522E+01
-2.7269772496E+01   -2.7041707066E+01   -2.6814044624E+01   -2.6586909370E+01
-2.6360422992E+01   -2.6134704377E+01   -2.5909869337E+01   -2.5686030369E+01
-2.5463296435E+01   -2.5241772766E+01   -2.5021560694E+01   -2.4802757502E+01
-2.4585456296E+01   -2.4369745899E+01   -2.4155710758E+01   -2.3943430867E+01
-2.3732981707E+01   -2.3524434198E+01   -2.3317854666E+01   -2.3113304815E+01
-2.2910841717E+01   -2.2710517810E+01   -2.2512380907E+01   -2.2316474217E+01
-2.2122836374E+01   -2.1931501476E+01   -2.1742499139E+01   -2.1555854553E+01
-2.1371588555E+01   -2.1189717702E+01   -2.1010254356E+01   -2.0833206778E+01
-2.0658579216E+01   -2.0486372004E+01   -2.0316581659E+01   -2.0149200978E+01
-1.9984219128E+01   -1.9821621733E+01   -1.9661390954E+01   -1.9503505560E+01
-1.9347940986E+01   -1.9194669375E+01   -1.9043659615E+01   -1.8894877473E+01
-1.8748285244E+01   -1.8603841940E+01   -1.8461503331E+01   -1.8321228667E+01
-1.8182983560E+01   -1.8046743394E+01   -1.7912476871E+01   -1.7780139694E+01
-1.7649685905E+01   -1.7521076438E+01   -1.7394287669E+01   -1.7269287086E+01
-1.7146031776E+01   -1.7024486006E+01   -1.6904616408E+01   -1.6786389495E+01
-1.6669773219E+01   -1.6554736769E+01   -1.6441250338E+01   -1.6329285097E+01
-1.6218813143E+01   -1.6109807429E+01   -1.6002241698E+01   -1.5896090428E+01
-1.5791328771E+01   -1.5687932504E+01   -1.5585877976E+01   -1.5485142059E+01
-1.5385702113E+01   -1.5287535940E+01   -1.5190621755E+01   -1.5094938159E+01
-1.5000464099E+01   -1.4907178901E+01   -1.4815062115E+01   -1.4724093387E+01
-1.4634253764E+01   -1.4545524694E+01   -1.4457883991E+01   -1.4371306609E+01
-1.4285767111E+01   -1.4201241066E+01   -1.4117708575E+01   -1.4035153393E+01
-1.3953558876E+01   -1.3872907862E+01   -1.3793183858E+01   -1.3714370873E+01
-1.3636453238E+01   -1.3559415661E+01   -1.3483243208E+01   -1.3407921287E+01
-1.3333435650E+01   -1.3259772377E+01   -1.3186917869E+01   -1.3114858840E+01
-1.3043582308E+01   -1.2973075585E+01   -1.2903326271E+01   -1.2834322245E+01
-1.2766051657E+01   -1.2698502920E+01   -1.2631664703E+01   -1.2565525923E+01
-1.2500075736E+01   -1.2435303533E+01   -1.2371198928E+01   -1.2307751752E+01
-1.2244952049E+01   -1.2182790061E+01   -1.2121256228E+01   -1.2060341175E+01
-1.2000035709E+01   -1.1940330810E+01   -1.1881217623E+01   -1.1822687455E+01
-1.1764731768E+01   -1.1707342172E+01   -1.1650510424E+01   -1.1594228420E+01
-1.1538488195E+01   -1.1483281919E+01   -1.1428601895E+01   -1.1374440557E+01
-1.1320790471E+01   -1.1267644332E+01   -1.1214994974E+01   -1.1162835351E+01
-1.1111158528E+01   -1.1059957687E+01   -1.1009226279E+01   -1.0958957884E+01
-1.0909146112E+01   -1.0859784486E+01   -1.0810866701E+01   -1.0762386179E+01
-1.0714336292E+01   -1.0666710560E+01   -1.0619505499E+01   -1.0572717973E+01
-1.0526344593E+01   -1.0480378241E+01   -1.0434811825E+01   -1.0389639050E+01
-1.0344855272E+01   -1.0300455981E+01   -1.0256436316E+01   -1.0212791332E+01
-1.0169516196E+01   -1.0126606252E+01   -1.0084056904E+01   -1.0041863623E+01
-1.0000021959E+01   -9.9585275375E+00   -9.9173760533E+00   -9.8765632734E+00
-9.8360850339E+00   -9.7959372388E+00   -9.7561158586E+00   -9.7166169291E+00
-9.6774365500E+00   -9.6385708835E+00   -9.6000161532E+00   -9.5617686428E+00
-9.5238246952E+00   -9.4861807106E+00   -9.4488331463E+00   -9.4117785148E+00
-9.3750133834E+00   -9.3385343724E+00   -9.3023381548E+00   -9.2664214548E+00
-9.2307810471E+00   -9.1954137555E+00   -9.1603164527E+00   -9.1254860587E+00
-9.0909195401E+00   -9.0566139095E+00   -9.0225662242E+00   -8.9887735857E+00
-8.9552331388E+00   -8.9219420706E+00   -8.8888976100E+00   -8.8560970268E+00
-8.8235376309E+00   -8.7912167716E+00   -8.7591318370E+00   -8.7272802531E+00
-8.6956594833E+00   -8.6642670274E+00   -8.6331004216E+00   -8.6021572371E+00
-8.5714350799E+00   -8.5409315900E+00   -8.5106444411E+00   -8.4805713396E+00
-8.4507100242E+00   -8.4210582656E+00   -8.3916138653E+00   -8.3623746557E+00
-8.3333384993E+00   -8.3045032881E+00   -8.2758669433E+00   -8.2474274146E+00
-8.2191826797E+00   -8.1911307442E+00   -8.1632696404E+00   -8.1355974278E+00
-8.1081121917E+00   -8.0808120435E+00   -8.0536951197E+00   -8.0267595820E+00
-8.0000036163E+00   -7.9734254328E+00   -7.9470232655E+00   -7.9207953715E+00
-7.8947400310E+00   -7.8688555467E+00   -7.8431402434E+00   -7.8175924679E+00
-7.7922105884E+00   -7.7669929942E+00   -7.7419380954E+00   -7.7170443225E+00
-7.6923101263E+00   -7.6677339771E+00   -7.6433143650E+00   -7.6190497991E+00
-7.5949388074E+00   -7.5709799366E+00   -7.5471717513E+00   -7.5235128347E+00
-7.5000017871E+00   -7.4766372267E+00   -7.4534177886E+00   -7.4303421250E+00
-7.4074089045E+00   -7.3846168123E+00   -7.3619645497E+00   -7.3394508337E+00
-7.3170743972E+00   -7.2948339884E+00   -7.2727283706E+00   -7.2507563221E+00
-7.2289166361E+00   -7.2072081199E+00   -7.1856295955E+00   -7.1641798987E+00
-7.1428578793E+00   -7.1216624006E+00   -7.1005923395E+00   -7.0796465861E+00
-7.0588240435E+00   -7.0381236279E+00   -7.0175442678E+00   -6.9970849045E+00
-6.9767444915E+00   -6.9565219944E+00   -6.9364163908E+00   -6.9164266702E+00
-6.8965518334E+00   -6.8767908931E+00   -6.8571428728E+00   -6.8376068076E+00
-6.8181817431E+00   -6.7988667361E+00   -6.7796608538E+00   -6.7605631741E+00
-6.7415727852E+00   -6.7226887854E+00   -6.7039102832E+00   -6.6852363970E+00
-6.6666662550E+00   -6.6481989950E+00   -6.6298337646E+00   -6.6115697203E+00
-6.5934060283E+00   -6.5753418638E+00   -6.5573764109E+00   -6.5395088627E+00
-6.5217384212E+00   -6.5040642968E+00   -6.4864857085E+00   -6.4690018839E+00
-6.4516120587E+00   -6.4343154768E+00   -6.4171113905E+00   -6.3999990595E+00
-6.3829777520E+00   -6.3660467436E+00   -6.3492053175E+00   -6.3324527648E+00
-6.3157883837E+00   -6.2992114801E+00   -6.2827213668E+00   -6.2663173642E+00
-6.2499987994E+00   -6.2337650067E+00   -6.2176153273E+00   -6.2015491091E+00
-6.1855657068E+00   -6.1696644817E+00   -6.1538448017E+00   -6.1381060412E+00
-6.1224475808E+00   -6.1068688075E+00   -6.0913691147E+00   -6.0759479017E+00
-6.0606045739E+00   -6.0453385429E+00   -6.0301492259E+00   -6.0150360462E+00
-5.9999984327E+00   -5.9850358202E+00   -5.9701476489E+00   -5.9553333646E+00
-5.9405924187E+00   -5.9259242680E+00   -5.9113283746E+00   -5.8968042057E+00
-5.8823512342E+00   -5.8679689377E+00   -5.8536567991E+00   -5.8394143063E+00
-5.8252409521E+00   -5.8111362344E+00   -5.7970996559E+00   -5.7831307238E+00
-5.7692289504E+00   -5.7553938526E+00   -5.7416249517E+00   -5.7279217739E+00
-5.7142838497E+00   -5.7007107141E+00   -5.6872019065E+00   -5.6737569707E+00
-5.6603754548E+00   -5.6470569111E+00   -5.6338008961E+00   -5.6206069705E+00
-5.6074746992E+00   -5.5944036509E+00   -5.5813933986E+00   -5.5684435190E+00
-5.5555535929E+00   -5.5427232049E+00   -5.5299519435E+00   -5.5172394009E+00
-5.5045851731E+00   -5.4919888597E+00   -5.4794500641E+00   -5.4669683932E+00
-5.4545434574E+00   -5.4421748710E+00   -5.4298622513E+00   -5.4176052195E+00
-5.4054033998E+00   -5.3932564202E+00   -5.3811639116E+00   -5.3691255085E+00
-5.3571408487E+00   -5.3452095729E+00   -5.3333313254E+00   -5.3215057533E+00
-5.3097325072E+00   -5.2980112403E+00   -5.2863416093E+00   -5.2747232737E+00
-5.2631558960E+00   -5.2516391417E+00   -5.2401726793E+00   -5.2287561799E+00
-5.2173893178E+00   -5.2060717699E+00   -5.1948032160E+00   -5.1835833387E+00
-5.1724118232E+00   -5.1612883575E+00   -5.1502126323E+00   -5.1391843409E+00
-5.1282031791E+00   -5.1172688457E+00   -5.1063810416E+00   -5.0955394704E+00
-5.0847438384E+00   -5.0739938541E+00   -5.0632892287E+00   -5.0526296756E+00
-5.0420149107E+00   -5.0314446525E+00   -5.0209186215E+00   -5.0104365408E+00
-4.9999981356E+00   -4.9896031336E+00   -4.9792512646E+00   -4.9689422607E+00
-4.9586758562E+00   -4.9484517875E+00   -4.9382697935E+00   -4.9281296147E+00
-4.9180309943E+00   -4.9079736772E+00   -4.8979574106E+00   -4.8879819436E+00
-4.8780470275E+00   -4.8681524154E+00   -4.8582978627E+00   -4.8484831265E+00
-4.8387079660E+00   -4.8289721423E+00   -4.8192754185E+00   -4.8096175594E+00
-4.7999983319E+00   -4.7904175046E+00   -4.7808748481E+00   -4.7713701347E+00
-4.7619031385E+00   -4.7524736354E+00   -4.7430814033E+00   -4.7337262215E+00
-4.7244078712E+00   -4.7151261353E+00   -4.7058807986E+00   -4.6966716471E+00
-4.6874984690E+00   -4.6783610539E+00   -4.6692591929E+00   -4.6601926791E+00
-4.6511613069E+00   -4.6421648724E+00   -4.6332031731E+00   -4.6242760084E+00
-4.6153831791E+00   -4.6065244873E+00   -4.5976997369E+00   -4.5889087332E+00
-4.5801512829E+00   -4.5714271945E+00   -4.5627362775E+00   -4.5540783431E+00
-4.5454532039E+00   -4.5368606740E+00   -4.5283005688E+00   -4.5197727050E+00
-4.5112769008E+00   -4.5028129759E+00   -4.4943807510E+00   -4.4859800485E+00
-4.4776106918E+00   -4.4692725060E+00   -4.4609653171E+00   -4.4526889526E+00
-4.4444432413E+00   -4.4362280132E+00   -4.4280430996E+00   -4.4198883329E+00
-4.4117635470E+00   -4.4036685768E+00   -4.3956032584E+00   -4.3875674293E+00
-4.3795609280E+00   -4.3715835942E+00   -4.3636352689E+00   -4.3557157940E+00
-4.3478250129E+00   -4.3399627697E+00   -4.3321289101E+00   -4.3243232805E+00
-4.3165457287E+00   -4.3087961033E+00   -4.3010742544E+00   -4.2933800327E+00
-4.2857132903E+00   -4.2780738803E+00   -4.2704616566E+00   -4.2628764746E+00
-4.2553181903E+00   -4.2477866609E+00   -4.2402817445E+00   -4.2328033005E+00
-4.2253511889E+00   -4.2179252709E+00   -4.2105254087E+00   -4.2031514654E+00
-4.1958033050E+00   -4.1884807925E+00   -4.1811837939E+00   -4.1739121761E+00
-4.1666658068E+00   -4.1594445548E+00   -4.1522482898E+00   -4.1450768822E+00
-4.1379302035E+00   -4.1308081259E+00   -4.1237105228E+00   -4.1166372681E+00
-4.1095882368E+00   -4.1025633046E+00   -4.0955623482E+00   -4.0885852450E+00
-4.0816318734E+00   -4.0747021124E+00   -4.0677958420E+00   -4.0609129429E+00
-4.0540532968E+00   -4.0472167860E+00   -4.0404032936E+00   -4.0336127035E+00
-4.0268449006E+00   -4.0200997703E+00   -4.0133771988E+00   -4.0066770731E+00
</PP_LOCAL>
<PP_NONLOCAL>
<PP_BETA.1
type="real"
size="600"
columns="4"
index="1"
angular_momentum="0"
cutoff_radius_index=" 172"
cutoff_radius="    1.7100000000E+00" >
-1.6007782877E-09    8.8821753435E-02    1.7734847914E-01    2.6528720136E-01
3.5234902210E-01    4.3825109471E-01    5.2271852045E-01    6.0548614408E-01
6.8630022644E-01    7.6491997360E-01    8.4111890480E-01    9.1468604366E-01
9.8542692000E-01    1.0531643728E+00    1.1177391474E+00    1.1790102845E+00
1.2368552994E+00    1.2911701569E+00    1.3418690459E+00    1.3888839648E+00
1.4321641300E+00    1.4716752211E+00    1.5073984820E+00    1.5393296968E+00
1.5674780612E+00    1.5918649730E+00    1.6125227651E+00    1.6294934055E+00
1.6428271878E+00    1.6525814387E+00    1.6588192634E+00    1.6616083533E+00
1.6610198763E+00    1.6571274694E+00    1.6500063493E+00    1.6397325573E+00
1.6263823493E+00    1.6100317393E+00    1.5907562035E+00    1.5686305459E+00
1.5437289256E+00    1.5161250414E+00    1.4858924660E+00    1.4531051204E+00
1.4178378733E+00    1.3801672510E+00    1.3401722389E+00    1.2979351528E+00
1.2535425590E+00    1.2070862183E+00    1.1586640296E+00    1.1083809472E+00
1.0563498474E+00    1.0026923180E+00    9.4753934861E-01    8.9103189597E-01
8.3332130677E-01    7.7456957633E-01    7.1494942824E-01    6.5464420116E-01
5.9384753263E-01    5.3276283314E-01    4.7160254733E-01    4.1058720290E-01
3.4994425180E-01    2.8990671203E-01    2.3071162196E-01    1.7259832322E-01
1.1580659111E-01    6.0574635157E-02    7.1369951308E-03   -4.4277639685E-02
-9.3448657789E-02   -1.4016576771E-01   -1.8423122225E-01   -2.2546199127E-01
-2.6369184907E-01   -2.9877334337E-01   -3.3057961339E-01   -3.5900602618E-01
-3.8397160259E-01   -4.0542020649E-01   -4.2332147408E-01   -4.3767146351E-01
-4.4849300883E-01   -4.5583576634E-01   -4.5977594612E-01   -4.6041572563E-01
-4.5788234743E-01   -4.5232690759E-01   -4.4392284605E-01   -4.3286415504E-01
-4.1936332588E-01   -4.0364905872E-01   -3.8596376381E-01   -3.6656088607E-01
-3.4570208796E-01   -3.2365432817E-01   -3.0068687540E-01   -2.7706829811E-01
-2.5306347168E-01   -2.2893064479E-01   -2.0491860591E-01   -1.8126398997E-01
-1.5818876328E-01   -1.3589792248E-01   -1.1457744012E-01   -9.4392486137E-02
-7.5485950362E-02   -5.7977286493E-02   -4.1961694034E-02   -2.7509648435E-02
-1.4666785241E-02   -3.4541379611E-03    6.1312752367E-03    1.4115527134E-02
2.0546535519E-02    2.5492517267E-02    2.9040167582E-02    3.1292595671E-02
3.2367051156E-02    3.2392479022E-02    3.1506943701E-02    2.9854966049E-02
2.7584817497E-02    2.4845817184E-02    2.1785678566E-02    1.8547952872E-02
1.5269597038E-02    1.2078774188E-02    9.0926574899E-03    6.4162200633E-03
4.1414962510E-03    2.3282190607E-03    1.0481478154E-03    3.6800400503E-04
1.0709342694E-04    1.4957309171E-05   -3.6721967101E-06   -3.6497705295E-07
1.2087717691E-06   -1.8101042459E-07   -2.8151645149E-07    0.0000000000E+00
0.0000000000E+00    0.0000000000E+00    0.0000000000E+00    0.0000000000E+00
0.0000000000E+00    0.0000000000E+00    0.0000000000E+00    0.0000000000E+00
0.0000000000E+00    0.0000000000E+00    0.0000000000E+00    0.0000000000E+00
0.0000000000E+00    0.0000000000E+00    0.0000000000E+00    0.0000000000E+00
0.0000000000E+00    0.0000000000E+00    0.0000000000E+00    0.0000000000E+00
0.0000000000E+00    0.0000000000E+00    0.0000000000E+00    0.0000000000E+00
0.0000000000E+00    0.0000000000E+00    0.0000000000E+00    0.0000000000E+00
0. 0. 0. 0.
0. 0. 0. 0.
0. 0. 0. 0.
0. 0. 0. 0.
0. 0. 0. 0.
0. 0. 0. 0.
0. 0. 0. 0.
0. 0. 0. 0.
0. 0. 0. 0.
0. 0. 0. 0.
0. 0. 0. 0.
0. 0. 0. 0.
0. 0. 0. 0.
0. 0. 0. 0.
0. 0. 0. 0.
0. 0. 0. 0.
0. 0. 0. 0.
0. 0. 0. 0.
0. 0. 0. 0.
0. 0. 0. 0.
0. 0. 0. 0.
0. 0. 0. 0.
0. 0. 0. 0.
0. 0. 0. 0.
0. 0. 0. 0.
0. 0. 0. 0.
0. 0. 0. 0.
0. 0. 0. 0.
0. 0. 0. 0.
0. 0. 0. 0.
0. 0. 0. 0.
0. 0. 0. 0.
0. 0. 0. 0.
0. 0. 0. 0.
0. 0. 0. 0.
0. 0. 0. 0.
0. 0. 0. 0.
0. 0. 0. 0.
0. 0. 0. 0.
0. 0. 0. 0.
0. 0. 0. 0.
0. 0. 0. 0.
0. 0. 0. 0.
0. 0. 0. 0.
0. 0. 0. 0.
0. 0. 0. 0.
0. 0. 0. 0.
0. 0. 0. 0.
0. 0. 0. 0.
0. 0. 0. 0.
0. 0. 0. 0.
0. 0. 0. 0.
0. 0. 0. 0.
0. 0. 0. 0.
0. 0. 0. 0.
0. 0. 0. 0.
0. 0. 0. 0.
0. 0. 0. 0.
0. 0. 0. 0.
0. 0. 0. 0.
0. 0. 0. 0.
0. 0. 0. 0.
0. 0. 0. 0.
0. 0. 0. 0.
0. 0. 0. 0.
0. 0. 0. 0.
0. 0. 0. 0.
0. 0. 0. 0.
0. 0. 0. 0.
0. 0. 0. 0.
0. 0. 0. 0.