<UPF version="2.0.1">
<PP_INFO>
NOTE!!!!
This file is trimmed with a mesh size of 600 from the original version.
Trimming performed at 2023-03-31 09:10:05.133214 by trim_upf.py version 0.1.0

This pseudopotential file has been produced using the code
ONCVPSP  (Optimized Norm-Conservinng Vanderbilt PSeudopotential)
scalar-relativistic version 3.3.0 08/16/2017 by D. R. Hamann
The code is available through a link at URL www.mat-simresearch.com.
Documentation with the package provides a full discription of the
input data below.
While it is not required under the terms of the GNU GPL, it is
suggested that you cite D. R. Hamann, Phys. Rev. B 88, 085117 (2013)
in any publication using these pseudopotentials.
<PP_INPUTFILE>
# ATOM AND REFERENCE CONFIGURATION
# atsym  z   nc   nv     iexc    psfile
Tl 81.00   12    3       4      upf
#
#   n    l    f        energy (Ha)
1    0    2.00
2    0    2.00
2    1    6.00
3    0    2.00
3    1    6.00
3    2   10.00
4    0    2.00
4    1    6.00
4    2   10.00
5    0    2.00
5    1    6.00
4    3   14.00
5    2   10.00
6    0    2.00
6    1    1.00
#
# PSEUDOPOTENTIAL AND OPTIMIZATION
# lmax
2
#
#   l,   rc,      ep,       ncon, nbas, qcut
0   2.10000  -0.35082    4    7   2.90000
1   2.60000  -0.08711    4    7   2.60000
2   2.00000  -0.56910    4    8   7.40000
#
# LOCAL POTENTIAL
# lloc, lpopt,  rc(5),   dvloc0
4    5   2.00000      0.00000
#
# VANDERBILT-KLEINMAN-BYLANDER PROJECTORs
# l, nproj, debl
0    2   2.60000
1    2   3.10000
2    2   1.00000
#
# MODEL CORE CHARGE
# icmod, fcfact, rcfact
3   7.00000   1.30000
#
# LOG DERIVATIVE ANALYSIS
# epsh1, epsh2, depsh
-12.00   12.00    0.02
#
# OUTPUT GRID
# rlmax, drl
6.00    0.01
#
# TEST CONFIGURATIONS
# ncnf
0
# nvcnf
#   n    l    f
</PP_INPUTFILE>
</PP_INFO>
<!--                               -->
<!-- END OF HUMAN READABLE SECTION -->
<!--                               -->
<PP_HEADER
generated="Generated using ONCVPSP code by D. R. Hamann"
author="anonymous"
date="171031"
comment=""
element="Tl"
pseudo_type="NC"
relativistic="scalar"
is_ultrasoft="F"
is_paw="F"
is_coulomb="F"
has_so="F"
has_wfc="F"
has_gipaw="F"
core_correction="T"
functional="PBE"
z_valence="   13.00"
total_psenergy="  -1.01314766911E+02"
rho_cutoff="   2.03100000000E+01"
l_max="2"
l_local="-1"
mesh_size="   600"
number_of_wfc="3"
number_of_proj="6"/>
<PP_MESH>
<PP_R type="real"  size="600" columns="8">
0.0000    0.0100    0.0200    0.0300    0.0400    0.0500    0.0600    0.0700
0.0800    0.0900    0.1000    0.1100    0.1200    0.1300    0.1400    0.1500
0.1600    0.1700    0.1800    0.1900    0.2000    0.2100    0.2200    0.2300
0.2400    0.2500    0.2600    0.2700    0.2800    0.2900    0.3000    0.3100
0.3200    0.3300    0.3400    0.3500    0.3600    0.3700    0.3800    0.3900
0.4000    0.4100    0.4200    0.4300    0.4400    0.4500    0.4600    0.4700
0.4800    0.4900    0.5000    0.5100    0.5200    0.5300    0.5400    0.5500
0.5600    0.5700    0.5800    0.5900    0.6000    0.6100    0.6200    0.6300
0.6400    0.6500    0.6600    0.6700    0.6800    0.6900    0.7000    0.7100
0.7200    0.7300    0.7400    0.7500    0.7600    0.7700    0.7800    0.7900
0.8000    0.8100    0.8200    0.8300    0.8400    0.8500    0.8600    0.8700
0.8800    0.8900    0.9000    0.9100    0.9200    0.9300    0.9400    0.9500
0.9600    0.9700    0.9800    0.9900    1.0000    1.0100    1.0200    1.0300
1.0400    1.0500    1.0600    1.0700    1.0800    1.0900    1.1000    1.1100
1.1200    1.1300    1.1400    1.1500    1.1600    1.1700    1.1800    1.1900
1.2000    1.2100    1.2200    1.2300    1.2400    1.2500    1.2600    1.2700
1.2800    1.2900    1.3000    1.3100    1.3200    1.3300    1.3400    1.3500
1.3600    1.3700    1.3800    1.3900    1.4000    1.4100    1.4200    1.4300
1.4400    1.4500    1.4600    1.4700    1.4800    1.4900    1.5000    1.5100
1.5200    1.5300    1.5400    1.5500    1.5600    1.5700    1.5800    1.5900
1.6000    1.6100    1.6200    1.6300    1.6400    1.6500    1.6600    1.6700
1.6800    1.6900    1.7000    1.7100    1.7200    1.7300    1.7400    1.7500
1.7600    1.7700    1.7800    1.7900    1.8000    1.8100    1.8200    1.8300
1.8400    1.8500    1.8600    1.8700    1.8800    1.8900    1.9000    1.9100
1.9200    1.9300    1.9400    1.9500    1.9600    1.9700    1.9800    1.9900
2.0000    2.0100    2.0200    2.0300    2.0400    2.0500    2.0600    2.0700
2.0800    2.0900    2.1000    2.1100    2.1200    2.1300    2.1400    2.1500
2.1600    2.1700    2.1800    2.1900    2.2000    2.2100    2.2200    2.2300
2.2400    2.2500    2.2600    2.2700    2.2800    2.2900    2.3000    2.3100
2.3200    2.3300    2.3400    2.3500    2.3600    2.3700    2.3800    2.3900
2.4000    2.4100    2.4200    2.4300    2.4400    2.4500    2.4600    2.4700
2.4800    2.4900    2.5000    2.5100    2.5200    2.5300    2.5400    2.5500
2.5600    2.5700    2.5800    2.5900    2.6000    2.6100    2.6200    2.6300
2.6400    2.6500    2.6600    2.6700    2.6800    2.6900    2.7000    2.7100
2.7200    2.7300    2.7400    2.7500    2.7600    2.7700    2.7800    2.7900
2.8000    2.8100    2.8200    2.8300    2.8400    2.8500    2.8600    2.8700
2.8800    2.8900    2.9000    2.9100    2.9200    2.9300    2.9400    2.9500
2.9600    2.9700    2.9800    2.9900    3.0000    3.0100    3.0200    3.0300
3.0400    3.0500    3.0600    3.0700    3.0800    3.0900    3.1000    3.1100
3.1200    3.1300    3.1400    3.1500    3.1600    3.1700    3.1800    3.1900
3.2000    3.2100    3.2200    3.2300    3.2400    3.2500    3.2600    3.2700
3.2800    3.2900    3.3000    3.3100    3.3200    3.3300    3.3400    3.3500
3.3600    3.3700    3.3800    3.3900    3.4000    3.4100    3.4200    3.4300
3.4400    3.4500    3.4600    3.4700    3.4800    3.4900    3.5000    3.5100
3.5200    3.5300    3.5400    3.5500    3.5600    3.5700    3.5800    3.5900
3.6000    3.6100    3.6200    3.6300    3.6400    3.6500    3.6600    3.6700
3.6800    3.6900    3.7000    3.7100    3.7200    3.7300    3.7400    3.7500
3.7600    3.7700    3.7800    3.7900    3.8000    3.8100    3.8200    3.8300
3.8400    3.8500    3.8600    3.8700    3.8800    3.8900    3.9000    3.9100
3.9200    3.9300    3.9400    3.9500    3.9600    3.9700    3.9800    3.9900
4.0000    4.0100    4.0200    4.0300    4.0400    4.0500    4.0600    4.0700
4.0800    4.0900    4.1000    4.1100    4.1200    4.1300    4.1400    4.1500
4.1600    4.1700    4.1800    4.1900    4.2000    4.2100    4.2200    4.2300
4.2400    4.2500    4.2600    4.2700    4.2800    4.2900    4.3000    4.3100
4.3200    4.3300    4.3400    4.3500    4.3600    4.3700    4.3800    4.3900
4.4000    4.4100    4.4200    4.4300    4.4400    4.4500    4.4600    4.4700
4.4800    4.4900    4.5000    4.5100    4.5200    4.5300    4.5400    4.5500
4.5600    4.5700    4.5800    4.5900    4.6000    4.6100    4.6200    4.6300
4.6400    4.6500    4.6600    4.6700    4.6800    4.6900    4.7000    4.7100
4.7200    4.7300    4.7400    4.7500    4.7600    4.7700    4.7800    4.7900
4.8000    4.8100    4.8200    4.8300    4.8400    4.8500    4.8600    4.8700
4.8800    4.8900    4.9000    4.9100    4.9200    4.9300    4.9400    4.9500
4.9600    4.9700    4.9800    4.9900    5.0000    5.0100    5.0200    5.0300
5.0400    5.0500    5.0600    5.0700    5.0800    5.0900    5.1000    5.1100
5.1200    5.1300    5.1400    5.1500    5.1600    5.1700    5.1800    5.1900
5.2000    5.2100    5.2200    5.2300    5.2400    5.2500    5.2600    5.2700
5.2800    5.2900    5.3000    5.3100    5.3200    5.3300    5.3400    5.3500
5.3600    5.3700    5.3800    5.3900    5.4000    5.4100    5.4200    5.4300
5.4400    5.4500    5.4600    5.4700    5.4800    5.4900    5.5000    5.5100
5.5200    5.5300    5.5400    5.5500    5.5600    5.5700    5.5800    5.5900
5.6000    5.6100    5.6200    5.6300    5.6400    5.6500    5.6600    5.6700
5.6800    5.6900    5.7000    5.7100    5.7200    5.7300    5.7400    5.7500
5.7600    5.7700    5.7800    5.7900    5.8000    5.8100    5.8200    5.8300
5.8400    5.8500    5.8600    5.8700    5.8800    5.8900    5.9000    5.9100
5.9200    5.9300    5.9400    5.9500    5.9600    5.9700    5.9800    5.9900
</PP_R>
<PP_RAB type="real"  size="600" columns="8">
0.0100    0.0100    0.0100    0.0100    0.0100    0.0100    0.0100    0.0100
0.0100    0.0100    0.0100    0.0100    0.0100    0.0100    0.0100    0.0100
0.0100    0.0100    0.0100    0.0100    0.0100    0.0100    0.0100    0.0100
0.0100    0.0100    0.0100    0.0100    0.0100    0.0100    0.0100    0.0100
0.0100    0.0100    0.0100    0.0100    0.0100    0.0100    0.0100    0.0100
0.0100    0.0100    0.0100    0.0100    0.0100    0.0100    0.0100    0.0100
0.0100    0.0100    0.0100    0.0100    0.0100    0.0100    0.0100    0.0100
0.0100    0.0100    0.0100    0.0100    0.0100    0.0100    0.0100    0.0100
0.0100    0.0100    0.0100    0.0100    0.0100    0.0100    0.0100    0.0100
0.0100    0.0100    0.0100    0.0100    0.0100    0.0100    0.0100    0.0100
0.0100    0.0100    0.0100    0.0100    0.0100    0.0100    0.0100    0.0100
0.0100    0.0100    0.0100    0.0100    0.0100    0.0100    0.0100    0.0100
0.0100    0.0100    0.0100    0.0100    0.0100    0.0100    0.0100    0.0100
0.0100    0.0100    0.0100    0.0100    0.0100    0.0100    0.0100    0.0100
0.0100    0.0100    0.0100    0.0100    0.0100    0.0100    0.0100    0.0100
0.0100    0.0100    0.0100    0.0100    0.0100    0.0100    0.0100    0.0100
0.0100    0.0100    0.0100    0.0100    0.0100    0.0100    0.0100    0.0100
0.0100    0.0100    0.0100    0.0100    0.0100    0.0100    0.0100    0.0100
0.0100    0.0100    0.0100    0.0100    0.0100    0.0100    0.0100    0.0100
0.0100    0.0100    0.0100    0.0100    0.0100    0.0100    0.0100    0.0100
0.0100    0.0100    0.0100    0.0100    0.0100    0.0100    0.0100    0.0100
0.0100    0.0100    0.0100    0.0100    0.0100    0.0100    0.0100    0.0100
0.0100    0.0100    0.0100    0.0100    0.0100    0.0100    0.0100    0.0100
0.0100    0.0100    0.0100    0.0100    0.0100    0.0100    0.0100    0.0100
0.0100    0.0100    0.0100    0.0100    0.0100    0.0100    0.0100    0.0100
0.0100    0.0100    0.0100    0.0100    0.0100    0.0100    0.0100    0.0100
0.0100    0.0100    0.0100    0.0100    0.0100    0.0100    0.0100    0.0100
0.0100    0.0100    0.0100    0.0100    0.0100    0.0100    0.0100    0.0100
0.0100    0.0100    0.0100    0.0100    0.0100    0.0100    0.0100    0.0100
0.0100    0.0100    0.0100    0.0100    0.0100    0.0100    0.0100    0.0100
0.0100    0.0100    0.0100    0.0100    0.0100    0.0100    0.0100    0.0100
0.0100    0.0100    0.0100    0.0100    0.0100    0.0100    0.0100    0.0100
0.0100    0.0100    0.0100    0.0100    0.0100    0.0100    0.0100    0.0100
0.0100    0.0100    0.0100    0.0100    0.0100    0.0100    0.0100    0.0100
0.0100    0.0100    0.0100    0.0100    0.0100    0.0100    0.0100    0.0100
0.0100    0.0100    0.0100    0.0100    0.0100    0.0100    0.0100    0.0100
0.0100    0.0100    0.0100    0.0100    0.0100    0.0100    0.0100    0.0100
0.0100    0.0100    0.0100    0.0100    0.0100    0.0100    0.0100    0.0100
0.0100    0.0100    0.0100    0.0100    0.0100    0.0100    0.0100    0.0100
0.0100    0.0100    0.0100    0.0100    0.0100    0.0100    0.0100    0.0100
0.0100    0.0100    0.0100    0.0100    0.0100    0.0100    0.0100    0.0100
0.0100    0.0100    0.0100    0.0100    0.0100    0.0100    0.0100    0.0100
0.0100    0.0100    0.0100    0.0100    0.0100    0.0100    0.0100    0.0100
0.0100    0.0100    0.0100    0.0100    0.0100    0.0100    0.0100    0.0100
0.0100    0.0100    0.0100    0.0100    0.0100    0.0100    0.0100    0.0100
0.0100    0.0100    0.0100    0.0100    0.0100    0.0100    0.0100    0.0100
0.0100    0.0100    0.0100    0.0100    0.0100    0.0100    0.0100    0.0100
0.0100    0.0100    0.0100    0.0100    0.0100    0.0100    0.0100    0.0100
0.0100    0.0100    0.0100    0.0100    0.0100    0.0100    0.0100    0.0100
0.0100    0.0100    0.0100    0.0100    0.0100    0.0100    0.0100    0.0100
0.0100    0.0100    0.0100    0.0100    0.0100    0.0100    0.0100    0.0100
0.0100    0.0100    0.0100    0.0100    0.0100    0.0100    0.0100    0.0100
0.0100    0.0100    0.0100    0.0100    0.0100    0.0100    0.0100    0.0100
0.0100    0.0100    0.0100    0.0100    0.0100    0.0100    0.0100    0.0100
0.0100    0.0100    0.0100    0.0100    0.0100    0.0100    0.0100    0.0100
0.0100    0.0100    0.0100    0.0100    0.0100    0.0100    0.0100    0.0100
0.0100    0.0100    0.0100    0.0100    0.0100    0.0100    0.0100    0.0100
0.0100    0.0100    0.0100    0.0100    0.0100    0.0100    0.0100    0.0100
0.0100    0.0100    0.0100    0.0100    0.0100    0.0100    0.0100    0.0100
0.0100    0.0100    0.0100    0.0100    0.0100    0.0100    0.0100    0.0100
0.0100    0.0100    0.0100    0.0100    0.0100    0.0100    0.0100    0.0100
0.0100    0.0100    0.0100    0.0100    0.0100    0.0100    0.0100    0.0100
0.0100    0.0100    0.0100    0.0100    0.0100    0.0100    0.0100    0.0100
0.0100    0.0100    0.0100    0.0100    0.0100    0.0100    0.0100    0.0100
0.0100    0.0100    0.0100    0.0100    0.0100    0.0100    0.0100    0.0100
0.0100    0.0100    0.0100    0.0100    0.0100    0.0100    0.0100    0.0100
0.0100    0.0100    0.0100    0.0100    0.0100    0.0100    0.0100    0.0100
0.0100    0.0100    0.0100    0.0100    0.0100    0.0100    0.0100    0.0100
0.0100    0.0100    0.0100    0.0100    0.0100    0.0100    0.0100    0.0100
0.0100    0.0100    0.0100    0.0100    0.0100    0.0100    0.0100    0.0100
0.0100    0.0100    0.0100    0.0100    0.0100    0.0100    0.0100    0.0100
0.0100    0.0100    0.0100    0.0100    0.0100    0.0100    0.0100    0.0100
0.0100    0.0100    0.0100    0.0100    0.0100    0.0100    0.0100    0.0100
0.0100    0.0100    0.0100    0.0100    0.0100    0.0100    0.0100    0.0100
0.0100    0.0100    0.0100    0.0100    0.0100    0.0100    0.0100    0.0100
</PP_RAB>
</PP_MESH>
<PP_LOCAL type="real"  size="600" columns="4">
-2.6443256977E+01   -2.6442936027E+01   -2.6441973123E+01   -2.6440368129E+01
-2.6438120805E+01   -2.6435230795E+01   -2.6431697603E+01   -2.6427520570E+01
-2.6422698841E+01   -2.6417231331E+01   -2.6411116687E+01   -2.6404353247E+01
-2.6396938997E+01   -2.6388871529E+01   -2.6380147994E+01   -2.6370765064E+01
-2.6360718888E+01   -2.6350005052E+01   -2.6338618549E+01   -2.6326553739E+01
-2.6313804330E+01   -2.6300363350E+01   -2.6286223133E+01   -2.6271375308E+01
-2.6255810793E+01   -2.6239519795E+01   -2.6222491820E+01   -2.6204715685E+01
-2.6186179537E+01   -2.6166870878E+01   -2.6146776598E+01   -2.6125883008E+01
-2.6104175879E+01   -2.6081640491E+01   -2.6058261675E+01   -2.6034023867E+01
-2.6008911163E+01   -2.5982907366E+01   -2.5955996052E+01   -2.5928160618E+01
-2.5899384343E+01   -2.5869650442E+01   -2.5838942126E+01   -2.5807242649E+01
-2.5774535368E+01   -2.5740803788E+01   -2.5706031617E+01   -2.5670202812E+01
-2.5633301622E+01   -2.5595312635E+01   -2.5556220823E+01   -2.5516011576E+01
-2.5474670747E+01   -2.5432184691E+01   -2.5388540299E+01   -2.5343725038E+01
-2.5297726989E+01   -2.5250534879E+01   -2.5202138123E+01   -2.5152526860E+01
-2.5101691987E+01   -2.5049625202E+01   -2.4996319042E+01   -2.4941766920E+01
-2.4885963166E+01   -2.4828903071E+01   -2.4770582925E+01   -2.4711000058E+01
-2.4650152884E+01   -2.4588040939E+01   -2.4524664922E+01   -2.4460026734E+01
-2.4394129515E+01   -2.4326977676E+01   -2.4258576935E+01   -2.4188934341E+01
-2.4118058298E+01   -2.4045958588E+01   -2.3972646379E+01   -2.3898134241E+01
-2.3822436141E+01   -2.3745567442E+01   -2.3667544893E+01   -2.3588386607E+01
-2.3508112043E+01   -2.3426741964E+01   -2.3344298409E+01   -2.3260804640E+01
-2.3176285092E+01   -2.3090765320E+01   -2.3004271930E+01   -2.2916832514E+01
-2.2828475583E+01   -2.2739230484E+01   -2.2649127330E+01   -2.2558196915E+01
-2.2466470638E+01   -2.2373980416E+01   -2.2280758607E+01   -2.2186837927E+01
-2.2092251369E+01   -2.1997032125E+01   -2.1901213511E+01   -2.1804828888E+01
-2.1707911592E+01   -2.1610494867E+01   -2.1512611793E+01   -2.1414295224E+01
-2.1315577729E+01   -2.1216491530E+01   -2.1117068448E+01   -2.1017339854E+01
-2.0917336614E+01   -2.0817089045E+01   -2.0716626871E+01   -2.0615979183E+01
-2.0515174399E+01   -2.0414240226E+01   -2.0313203632E+01   -2.0212090813E+01
-2.0110927164E+01   -2.0009737261E+01   -1.9908544830E+01   -1.9807372738E+01
-1.9706242975E+01   -1.9605176641E+01   -1.9504193942E+01   -1.9403314187E+01
-1.9302555788E+01   -1.9201936266E+01   -1.9101472264E+01   -1.9001179560E+01
-1.8901073088E+01   -1.8801166965E+01   -1.8701474523E+01   -1.8602008342E+01
-1.8502780295E+01   -1.8403801588E+01   -1.8305082817E+01   -1.8206634017E+01
-1.8108464723E+01   -1.8010584026E+01   -1.7913000637E+01   -1.7815722952E+01
-1.7718759110E+01   -1.7622117060E+01   -1.7525804616E+01   -1.7429829517E+01
-1.7334199479E+01   -1.7238922239E+01   -1.7144005602E+01   -1.7049457469E+01
-1.6955285868E+01   -1.6861498969E+01   -1.6768105097E+01   -1.6675112734E+01
-1.6582530508E+01   -1.6490367186E+01   -1.6398631645E+01   -1.6307332852E+01
-1.6216479825E+01   -1.6126081600E+01   -1.6036147193E+01   -1.5946685558E+01
-1.5857705552E+01   -1.5769215893E+01   -1.5681225134E+01   -1.5593741631E+01
-1.5506773523E+01   -1.5420328721E+01   -1.5334414896E+01   -1.5249039489E+01
-1.5164209710E+01   -1.5079932565E+01   -1.4996214871E+01   -1.4913063290E+01
-1.4830484353E+01   -1.4748484500E+01   -1.4667070107E+01   -1.4586247517E+01
-1.4506023066E+01   -1.4426403097E+01   -1.4347393975E+01   -1.4269002082E+01
-1.4191233810E+01   -1.4114095535E+01   -1.4037593583E+01   -1.3961734186E+01
-1.3886523420E+01   -1.3811967140E+01   -1.3738070900E+01   -1.3664839880E+01
-1.3592278805E+01   -1.3520391759E+01   -1.3449182179E+01   -1.3378652841E+01
-1.3308805735E+01   -1.3239641672E+01   -1.3171161158E+01   -1.3103362354E+01
-1.3036240086E+01   -1.2969786177E+01   -1.2903988910E+01   -1.2838832237E+01
-1.2774300734E+01   -1.2710390536E+01   -1.2647101030E+01   -1.2584430110E+01
-1.2522372180E+01   -1.2460921697E+01   -1.2400074919E+01   -1.2339827851E+01
-1.2280176602E+01   -1.2221117249E+01   -1.2162645738E+01   -1.2104757438E+01
-1.2047447429E+01   -1.1990710480E+01   -1.1934541117E+01   -1.1878933627E+01
-1.1823882335E+01   -1.1769381431E+01   -1.1715424918E+01   -1.1662006462E+01
-1.1609119564E+01   -1.1556757584E+01   -1.1504913754E+01   -1.1453581165E+01
-1.1402752765E+01   -1.1352421387E+01   -1.1302579765E+01   -1.1253220549E+01
-1.1204336317E+01   -1.1155919594E+01   -1.1107962864E+01   -1.1060458589E+01
-1.1013399223E+01   -1.0966777230E+01   -1.0920585093E+01   -1.0874815336E+01
-1.0829460531E+01   -1.0784513319E+01   -1.0739966416E+01   -1.0695812628E+01
-1.0652044863E+01   -1.0608656139E+01   -1.0565639599E+01   -1.0522988511E+01
-1.0480696283E+01   -1.0438756468E+01   -1.0397162770E+01   -1.0355909052E+01
-1.0314989338E+01   -1.0274397809E+01   -1.0234128817E+01   -1.0194176885E+01
-1.0154536709E+01   -1.0115203118E+01   -1.0076171166E+01   -1.0037436134E+01
-9.9989935919E+00   -9.9608393449E+00   -9.9229694002E+00   -9.8853801604E+00
-9.8480681311E+00   -9.8110300050E+00   -9.7742622614E+00   -9.7377614848E+00
-9.7015243100E+00   -9.6655474735E+00   -9.6298278178E+00   -9.5943622767E+00
-9.5591480104E+00   -9.5241823727E+00   -9.4894628298E+00   -9.4549869299E+00
-9.4207522083E+00   -9.3867563112E+00   -9.3529969433E+00   -9.3194719450E+00
-9.2861792111E+00   -9.2531167077E+00   -9.2202824520E+00   -9.1876745144E+00
-9.1552910150E+00   -9.1231301179E+00   -9.0911900270E+00   -9.0594689791E+00
-9.0279652404E+00   -8.9966771007E+00   -8.9656028699E+00   -8.9347408733E+00
-8.9040894480E+00   -8.8736469390E+00   -8.8434116958E+00   -8.8133820696E+00
-8.7835564100E+00   -8.7539330630E+00   -8.7245103686E+00   -8.6952866591E+00
-8.6662602575E+00   -8.6374294764E+00   -8.6087926177E+00   -8.5803479708E+00
-8.5520938139E+00   -8.5240284130E+00   -8.4961500231E+00   -8.4684568883E+00
-8.4409472430E+00   -8.4136193129E+00   -8.3864713163E+00   -8.3595014661E+00
-8.3327079707E+00   -8.3060890363E+00   -8.2796428691E+00   -8.2533676765E+00
-8.2272616700E+00   -8.2013230666E+00   -8.1755500916E+00   -8.1499409800E+00
-8.1244939791E+00   -8.0992073502E+00   -8.0740793707E+00   -8.0491083359E+00
-8.0242925607E+00   -7.9996303813E+00   -7.9751201568E+00   -7.9507602705E+00
-7.9265491310E+00   -7.9024851734E+00   -7.8785668606E+00   -7.8547926836E+00
-7.8311611622E+00   -7.8076708461E+00   -7.7843203145E+00   -7.7611081768E+00
-7.7380330725E+00   -7.7150936713E+00   -7.6922886727E+00   -7.6696168060E+00
-7.6470768296E+00   -7.6246675308E+00   -7.6023877250E+00   -7.5802362550E+00
-7.5582119905E+00   -7.5363138269E+00   -7.5145406845E+00   -7.4928915077E+00
-7.4713652639E+00   -7.4499609426E+00   -7.4286775538E+00   -7.4075141276E+00
-7.3864697127E+00   -7.3655433752E+00   -7.3447341976E+00   -7.3240412778E+00
-7.3034637277E+00   -7.2830006724E+00   -7.2626512489E+00   -7.2424146049E+00
-7.2222898982E+00   -7.2022762956E+00   -7.1823729718E+00   -7.1625791084E+00
-7.1428938936E+00   -7.1233165210E+00   -7.1038461888E+00   -7.0844820997E+00
-7.0652234596E+00   -7.0460694778E+00   -7.0270193662E+00   -7.0080723388E+00
-6.9892276116E+00   -6.9704844024E+00   -6.9518419308E+00   -6.9332994178E+00
-6.9148560856E+00   -6.8965111584E+00   -6.8782638620E+00   -6.8601134238E+00
-6.8420590736E+00   -6.8241000432E+00   -6.8062355673E+00   -6.7884648835E+00
-6.7707872328E+00   -6.7532018601E+00   -6.7357080142E+00   -6.7183049490E+00
-6.7009919230E+00   -6.6837682009E+00   -6.6666330530E+00   -6.6495857562E+00
-6.6326255941E+00   -6.6157518578E+00   -6.5989638462E+00   -6.5822608660E+00
-6.5656422325E+00   -6.5491072694E+00   -6.5326553095E+00   -6.5162856948E+00
-6.4999977767E+00   -6.4837909157E+00   -6.4676644819E+00   -6.4516178555E+00
-6.4356504258E+00   -6.4197615920E+00   -6.4039507628E+00   -6.3882173563E+00
-6.3725607992E+00   -6.3569805274E+00   -6.3414759862E+00   -6.3260466226E+00
-6.3106918991E+00   -6.2954113000E+00   -6.2802043068E+00   -6.2650704058E+00
-6.2500091254E+00   -6.2350199451E+00   -6.2201023020E+00   -6.2052556810E+00
-6.1904795848E+00   -6.1757734683E+00   -6.1611369117E+00   -6.1465696006E+00
-6.1320711730E+00   -6.1176412724E+00   -6.1032795489E+00   -6.0889856228E+00
-6.0747590719E+00   -6.0605994539E+00   -6.0465062882E+00   -6.0324791602E+00
-6.0185175482E+00   -6.0046205908E+00   -5.9907875944E+00   -5.9770178812E+00
-5.9633107140E+00   -5.9496652655E+00   -5.9360815604E+00   -5.9225593074E+00
-5.9090982551E+00   -5.8956981686E+00   -5.8823591626E+00   -5.8690805197E+00
-5.8558618228E+00   -5.8427026424E+00   -5.8296025349E+00   -5.8165609492E+00
-5.8035775226E+00   -5.7906519107E+00   -5.7777837288E+00   -5.7649725993E+00
-5.7522181599E+00   -5.7395200505E+00   -5.7268778807E+00   -5.7142912818E+00
-5.7017598881E+00   -5.6892833370E+00   -5.6768612679E+00   -5.6644933257E+00
-5.6521791574E+00   -5.6399184132E+00   -5.6277107463E+00   -5.6155558126E+00
-5.6034532712E+00   -5.5914027843E+00   -5.5794040166E+00   -5.5674566359E+00
-5.5555603129E+00   -5.5437147209E+00   -5.5319195362E+00   -5.5201744377E+00
-5.5084791071E+00   -5.4968332287E+00   -5.4852364895E+00   -5.4736885792E+00
-5.4621891900E+00   -5.4507380169E+00   -5.4393347571E+00   -5.4279791106E+00
-5.4166707798E+00   -5.4054094696E+00   -5.3941948874E+00   -5.3830267429E+00
-5.3719047482E+00   -5.3608286180E+00   -5.3497980690E+00   -5.3388128205E+00
-5.3278725941E+00   -5.3169771135E+00   -5.3061261047E+00   -5.2953192960E+00
-5.2845564179E+00   -5.2738372031E+00   -5.2631613864E+00   -5.2525287048E+00
-5.2419388974E+00   -5.2313917054E+00   -5.2208868720E+00   -5.2104241426E+00
-5.2000032645E+00   -5.1896239872E+00   -5.1792860621E+00   -5.1689892424E+00
-5.1587332835E+00   -5.1485179427E+00   -5.1383429792E+00   -5.1282081540E+00
-5.1181132300E+00   -5.1080579722E+00   -5.0980421471E+00   -5.0880655232E+00
-5.0781278710E+00   -5.0682289623E+00   -5.0583685712E+00   -5.0485464732E+00
-5.0387624457E+00   -5.0290162677E+00   -5.0193077201E+00   -5.0096365854E+00
-5.0000026476E+00   -4.9904056927E+00   -4.9808455079E+00   -4.9713218825E+00
-4.9618346071E+00   -4.9523834740E+00   -4.9429682771E+00   -4.9335888117E+00
-4.9242448748E+00   -4.9149362651E+00   -4.9056627824E+00   -4.8964242283E+00
-4.8872204059E+00   -4.8780511196E+00   -4.8689161755E+00   -4.8598153809E+00
-4.8507485448E+00   -4.8417154773E+00   -4.8327159903E+00   -4.8237498967E+00
-4.8148170111E+00   -4.8059171493E+00   -4.7970501285E+00   -4.7882157673E+00
-4.7794138856E+00   -4.7706443045E+00   -4.7619068466E+00   -4.7532013357E+00
-4.7445275970E+00   -4.7358854567E+00   -4.7272747426E+00   -4.7186952834E+00
-4.7101469095E+00   -4.7016294521E+00   -4.6931427437E+00   -4.6846866183E+00
-4.6762609107E+00   -4.6678654571E+00   -4.6595000949E+00   -4.6511646626E+00
-4.6428589998E+00   -4.6345829474E+00   -4.6263363472E+00   -4.6181190424E+00
-4.6099308771E+00   -4.6017716965E+00   -4.5936413471E+00   -4.5855396763E+00
-4.5774665326E+00   -4.5694217656E+00   -4.5614052260E+00   -4.5534167654E+00
-4.5454562366E+00   -4.5375234934E+00   -4.5296183905E+00   -4.5217407837E+00
-4.5138905298E+00   -4.5060674866E+00   -4.4982715128E+00   -4.4905024682E+00
-4.4827602135E+00   -4.4750446104E+00   -4.4673555214E+00   -4.4596928102E+00
-4.4520563412E+00   -4.4444459799E+00   -4.4368615926E+00   -4.4293030466E+00
-4.4217702099E+00   -4.4142629518E+00   -4.4067811420E+00   -4.3993246515E+00
-4.3918933519E+00   -4.3844871158E+00   -4.3771058165E+00   -4.3697493284E+00
-4.3624175266E+00   -4.3551102870E+00   -4.3478274864E+00   -4.3405690024E+00
</PP_LOCAL>
<PP_NONLOCAL>
<PP_BETA.1
type="real"
size="600"
columns="4"
index="1"
angular_momentum="0"
cutoff_radius_index=" 264"
cutoff_radius="    2.6300000000E+00" >
-7.6323947162E-12    1.7061803874E-02    3.4110408073E-02    5.1132689827E-02
6.8115679747E-02    8.5046637442E-02    1.0191312586E-01    1.1870308394E-01
1.3540489712E-01    1.5200746540E-01    1.6850026843E-01    1.8487342742E-01
2.0111776330E-01    2.1722485102E-01    2.3318706943E-01    2.4899764667E-01
2.6465070053E-01    2.8014127375E-01    2.9546536385E-01    3.1061994741E-01
3.2560299847E-01    3.4041350104E-01    3.5505145543E-01    3.6951787845E-01
3.8381479731E-01    3.9794523717E-01    4.1191320241E-01    4.2572365154E-01
4.3938246586E-01    4.5289641194E-01    4.6627309804E-01    4.7952092457E-01
4.9264902882E-01    5.0566722411E-01    5.1858593370E-01    5.3141611953E-01
5.4416920631E-01    5.5685700114E-01    5.6949160897E-01    5.8208534445E-01
5.9465064036E-01    6.0719995316E-01    6.1974566609E-01    6.3229999020E-01
6.4487486390E-01    6.5748185135E-01    6.7013204045E-01    6.8283594059E-01
6.9560338106E-01    7.0844341034E-01    7.2136419702E-01    7.3437293266E-01
7.4747573743E-01    7.6067756871E-01    7.7398213345E-01    7.8739180473E-01
8.0090754286E-01    8.1452882183E-01    8.2825356127E-01    8.4207806461E-01
8.5599696374E-01    8.7000317068E-01    8.8408783654E-01    8.9824031832E-01
9.1244815361E-01    9.2669704378E-01    9.4097084577E-01    9.5525157267E-01
9.6951940347E-01    9.8375270197E-01    9.9792804500E-01    1.0120202601E+00
1.0260024728E+00    1.0398461628E+00    1.0535212304E+00    1.0669960714E+00
1.0802376616E+00    1.0932116503E+00    1.1058824622E+00    1.1182134082E+00
1.1301668036E+00    1.1417040952E+00    1.1527859948E+00    1.1633726199E+00
1.1734236409E+00    1.1828984345E+00    1.1917562416E+00    1.1999563308E+00
1.2074581655E+00    1.2142215749E+00    1.2202069271E+00    1.2253753046E+00
1.2296886816E+00    1.2331101006E+00    1.2356038503E+00    1.2371356412E+00
1.2376727799E+00    1.2371843410E+00    1.2356413355E+00    1.2330168743E+00
1.2292863280E+00    1.2244274794E+00    1.2184206706E+00    1.2112489422E+00
1.2028981647E+00    1.1933571604E+00    1.1826178172E+00    1.1706751906E+00
1.1575275961E+00    1.1431766900E+00    1.1276275378E+00    1.1108886710E+00
1.0929721304E+00    1.0738934963E+00    1.0536719055E+00    1.0323300535E+00
1.0098941839E+00    9.8639406209E-01    9.6186293524E-01    9.3633747794E-01
9.0985772293E-01    8.8246697761E-01    8.5421172629E-01    8.2514151836E-01
7.9530884259E-01    7.6476898810E-01    7.3357989210E-01    7.0180197509E-01
6.6949796400E-01    6.3673270375E-01    6.0357295796E-01    5.7008719951E-01
5.3634539164E-01    5.0241876044E-01    4.6837955960E-01    4.3430082817E-01
4.0025614254E-01    3.6631936327E-01    3.3256437809E-01    2.9906484193E-01
2.6589391500E-01    2.3312400022E-01    2.0082648082E-01    1.6907145947E-01
1.3792749985E-01    1.0746137191E-01    7.7737801845E-02    4.8819227978E-02
2.0765563529E-02   -6.3660325960E-03   -3.2521375920E-02   -5.7649466529E-02
-8.1702688064E-02   -1.0463699481E-01   -1.2641208583E-01   -1.4699156542E-01
-1.6634308901E-01   -1.8443849374E-01   -2.0125391319E-01   -2.1676987539E-01
-2.3097138388E-01   -2.4384798090E-01   -2.5539379293E-01   -2.6560755744E-01
-2.7449263145E-01   -2.8205698089E-01   -2.8831315152E-01   -2.9327822042E-01
-2.9697372916E-01   -2.9942559777E-01   -3.0066402072E-01   -3.0072334421E-01
-2.9964192620E-01   -2.9746197860E-01   -2.9422939318E-01   -2.8999355082E-01
-2.8480711582E-01   -2.7872581489E-01   -2.7180820289E-01   -2.6411541491E-01
-2.5571090694E-01   -2.4666018489E-01   -2.3703052410E-01   -2.2689067962E-01
-2.1631058884E-01   -2.0536106765E-01   -1.9411350098E-01   -1.8263952946E-01
-1.7101073304E-01   -1.5929831304E-01   -1.4757277394E-01   -1.3590360597E-01
-1.2435897017E-01   -1.1300538671E-01   -1.0190742790E-01   -9.1127418274E-02
-8.0725141335E-02   -7.0757545941E-02   -6.1278498996E-02   -5.2338494873E-02
-4.3984365900E-02   -3.6259102480E-02   -2.9201700634E-02   -2.2847013119E-02
-1.7230288098E-02   -1.2367661025E-02   -8.2676760794E-03   -4.9686038278E-03