<UPF version="2.0.1">
<PP_INFO>
NOTE!!!!
This file is trimmed with a mesh size of 600 from the original version.
Trimming performed at 2023-03-31 09:10:04.881240 by trim_upf.py version 0.1.0

This pseudopotential file has been produced using the code
ONCVPSP  (Optimized Norm-Conservinng Vanderbilt PSeudopotential)
scalar-relativistic version 3.3.0 08/16/2017 by D. R. Hamann
The code is available through a link at URL www.mat-simresearch.com.
Documentation with the package provides a full discription of the
input data below.
While it is not required under the terms of the GNU GPL, it is
suggested that you cite D. R. Hamann, Phys. Rev. B 88, 085117 (2013)
in any publication using these pseudopotentials.
<PP_INPUTFILE>
# ATOM AND REFERENCE CONFIGURATION
# atsym  z   nc   nv     iexc    psfile
V 23.00    3    4       4      upf
#
#   n    l    f        energy (Ha)
1    0    2.00
2    0    2.00
2    1    6.00
3    0    2.00
3    1    6.00
3    2    3.00
4    0    2.00
#
# PSEUDOPOTENTIAL AND OPTIMIZATION
# lmax
2
#
#   l,   rc,      ep,       ncon, nbas, qcut
0   1.30000  -2.58111    4    8   9.00000
1   1.30000  -1.61849    4    7   9.00000
2   1.65000  -0.18980    4    8   9.00000
#
# LOCAL POTENTIAL
# lloc, lpopt,  rc(5),   dvloc0
4    5   1.20000      0.00000
#
# VANDERBILT-KLEINMAN-BYLANDER PROJECTORs
# l, nproj, debl
0    2   2.40830
1    2   1.56543
2    2   1.50000
#
# MODEL CORE CHARGE
# icmod, fcfact, rcfact
3   5.00000   1.30000
#
# LOG DERIVATIVE ANALYSIS
# epsh1, epsh2, depsh
-12.00   12.00    0.02
#
# OUTPUT GRID
# rlmax, drl
6.00    0.01
#
# TEST CONFIGURATIONS
# ncnf
0
# nvcnf
#   n    l    f
</PP_INPUTFILE>
</PP_INFO>
<!--                               -->
<!-- END OF HUMAN READABLE SECTION -->
<!--                               -->
<PP_HEADER
generated="Generated using ONCVPSP code by D. R. Hamann"
author="anonymous"
date="171031"
comment=""
element="V "
pseudo_type="NC"
relativistic="scalar"
is_ultrasoft="F"
is_paw="F"
is_coulomb="F"
has_so="F"
has_wfc="F"
has_gipaw="F"
core_correction="T"
functional="PBE"
z_valence="   13.00"
total_psenergy="  -1.42344709583E+02"
rho_cutoff="   1.53500000000E+01"
l_max="2"
l_local="-1"
mesh_size="   600"
number_of_wfc="4"
number_of_proj="6"/>
<PP_MESH>
<PP_R type="real"  size="600" columns="8">
0.0000    0.0100    0.0200    0.0300    0.0400    0.0500    0.0600    0.0700
0.0800    0.0900    0.1000    0.1100    0.1200    0.1300    0.1400    0.1500
0.1600    0.1700    0.1800    0.1900    0.2000    0.2100    0.2200    0.2300
0.2400    0.2500    0.2600    0.2700    0.2800    0.2900    0.3000    0.3100
0.3200    0.3300    0.3400    0.3500    0.3600    0.3700    0.3800    0.3900
0.4000    0.4100    0.4200    0.4300    0.4400    0.4500    0.4600    0.4700
0.4800    0.4900    0.5000    0.5100    0.5200    0.5300    0.5400    0.5500
0.5600    0.5700    0.5800    0.5900    0.6000    0.6100    0.6200    0.6300
0.6400    0.6500    0.6600    0.6700    0.6800    0.6900    0.7000    0.7100
0.7200    0.7300    0.7400    0.7500    0.7600    0.7700    0.7800    0.7900
0.8000    0.8100    0.8200    0.8300    0.8400    0.8500    0.8600    0.8700
0.8800    0.8900    0.9000    0.9100    0.9200    0.9300    0.9400    0.9500
0.9600    0.9700    0.9800    0.9900    1.0000    1.0100    1.0200    1.0300
1.0400    1.0500    1.0600    1.0700    1.0800    1.0900    1.1000    1.1100
1.1200    1.1300    1.1400    1.1500    1.1600    1.1700    1.1800    1.1900
1.2000    1.2100    1.2200    1.2300    1.2400    1.2500    1.2600    1.2700
1.2800    1.2900    1.3000    1.3100    1.3200    1.3300    1.3400    1.3500
1.3600    1.3700    1.3800    1.3900    1.4000    1.4100    1.4200    1.4300
1.4400    1.4500    1.4600    1.4700    1.4800    1.4900    1.5000    1.5100
1.5200    1.5300    1.5400    1.5500    1.5600    1.5700    1.5800    1.5900
1.6000    1.6100    1.6200    1.6300    1.6400    1.6500    1.6600    1.6700
1.6800    1.6900    1.7000    1.7100    1.7200    1.7300    1.7400    1.7500
1.7600    1.7700    1.7800    1.7900    1.8000    1.8100    1.8200    1.8300
1.8400    1.8500    1.8600    1.8700    1.8800    1.8900    1.9000    1.9100
1.9200    1.9300    1.9400    1.9500    1.9600    1.9700    1.9800    1.9900
2.0000    2.0100    2.0200    2.0300    2.0400    2.0500    2.0600    2.0700
2.0800    2.0900    2.1000    2.1100    2.1200    2.1300    2.1400    2.1500
2.1600    2.1700    2.1800    2.1900    2.2000    2.2100    2.2200    2.2300
2.2400    2.2500    2.2600    2.2700    2.2800    2.2900    2.3000    2.3100
2.3200    2.3300    2.3400    2.3500    2.3600    2.3700    2.3800    2.3900
2.4000    2.4100    2.4200    2.4300    2.4400    2.4500    2.4600    2.4700
2.4800    2.4900    2.5000    2.5100    2.5200    2.5300    2.5400    2.5500
2.5600    2.5700    2.5800    2.5900    2.6000    2.6100    2.6200    2.6300
2.6400    2.6500    2.6600    2.6700    2.6800    2.6900    2.7000    2.7100
2.7200    2.7300    2.7400    2.7500    2.7600    2.7700    2.7800    2.7900
2.8000    2.8100    2.8200    2.8300    2.8400    2.8500    2.8600    2.8700
2.8800    2.8900    2.9000    2.9100    2.9200    2.9300    2.9400    2.9500
2.9600    2.9700    2.9800    2.9900    3.0000    3.0100    3.0200    3.0300
3.0400    3.0500    3.0600    3.0700    3.0800    3.0900    3.1000    3.1100
3.1200    3.1300    3.1400    3.1500    3.1600    3.1700    3.1800    3.1900
3.2000    3.2100    3.2200    3.2300    3.2400    3.2500    3.2600    3.2700
3.2800    3.2900    3.3000    3.3100    3.3200    3.3300    3.3400    3.3500
3.3600    3.3700    3.3800    3.3900    3.4000    3.4100    3.4200    3.4300
3.4400    3.4500    3.4600    3.4700    3.4800    3.4900    3.5000    3.5100
3.5200    3.5300    3.5400    3.5500    3.5600    3.5700    3.5800    3.5900
3.6000    3.6100    3.6200    3.6300    3.6400    3.6500    3.6600    3.6700
3.6800    3.6900    3.7000    3.7100    3.7200    3.7300    3.7400    3.7500
3.7600    3.7700    3.7800    3.7900    3.8000    3.8100    3.8200    3.8300
3.8400    3.8500    3.8600    3.8700    3.8800    3.8900    3.9000    3.9100
3.9200    3.9300    3.9400    3.9500    3.9600    3.9700    3.9800    3.9900
4.0000    4.0100    4.0200    4.0300    4.0400    4.0500    4.0600    4.0700
4.0800    4.0900    4.1000    4.1100    4.1200    4.1300    4.1400    4.1500
4.1600    4.1700    4.1800    4.1900    4.2000    4.2100    4.2200    4.2300
4.2400    4.2500    4.2600    4.2700    4.2800    4.2900    4.3000    4.3100
4.3200    4.3300    4.3400    4.3500    4.3600    4.3700    4.3800    4.3900
4.4000    4.4100    4.4200    4.4300    4.4400    4.4500    4.4600    4.4700
4.4800    4.4900    4.5000    4.5100    4.5200    4.5300    4.5400    4.5500
4.5600    4.5700    4.5800    4.5900    4.6000    4.6100    4.6200    4.6300
4.6400    4.6500    4.6600    4.6700    4.6800    4.6900    4.7000    4.7100
4.7200    4.7300    4.7400    4.7500    4.7600    4.7700    4.7800    4.7900
4.8000    4.8100    4.8200    4.8300    4.8400    4.8500    4.8600    4.8700
4.8800    4.8900    4.9000    4.9100    4.9200    4.9300    4.9400    4.9500
4.9600    4.9700    4.9800    4.9900    5.0000    5.0100    5.0200    5.0300
5.0400    5.0500    5.0600    5.0700    5.0800    5.0900    5.1000    5.1100
5.1200    5.1300    5.1400    5.1500    5.1600    5.1700    5.1800    5.1900
5.2000    5.2100    5.2200    5.2300    5.2400    5.2500    5.2600    5.2700
5.2800    5.2900    5.3000    5.3100    5.3200    5.3300    5.3400    5.3500
5.3600    5.3700    5.3800    5.3900    5.4000    5.4100    5.4200    5.4300
5.4400    5.4500    5.4600    5.4700    5.4800    5.4900    5.5000    5.5100
5.5200    5.5300    5.5400    5.5500    5.5600    5.5700    5.5800    5.5900
5.6000    5.6100    5.6200    5.6300    5.6400    5.6500    5.6600    5.6700
5.6800    5.6900    5.7000    5.7100    5.7200    5.7300    5.7400    5.7500
5.7600    5.7700    5.7800    5.7900    5.8000    5.8100    5.8200    5.8300
5.8400    5.8500    5.8600    5.8700    5.8800    5.8900    5.9000    5.9100
5.9200    5.9300    5.9400    5.9500    5.9600    5.9700    5.9800    5.9900
</PP_R>
<PP_RAB type="real"  size="600" columns="8">
0.0100    0.0100    0.0100    0.0100    0.0100    0.0100    0.0100    0.0100
0.0100    0.0100    0.0100    0.0100    0.0100    0.0100    0.0100    0.0100
0.0100    0.0100    0.0100    0.0100    0.0100    0.0100    0.0100    0.0100
0.0100    0.0100    0.0100    0.0100    0.0100    0.0100    0.0100    0.0100
0.0100    0.0100    0.0100    0.0100    0.0100    0.0100    0.0100    0.0100
0.0100    0.0100    0.0100    0.0100    0.0100    0.0100    0.0100    0.0100
0.0100    0.0100    0.0100    0.0100    0.0100    0.0100    0.0100    0.0100
0.0100    0.0100    0.0100    0.0100    0.0100    0.0100    0.0100    0.0100
0.0100    0.0100    0.0100    0.0100    0.0100    0.0100    0.0100    0.0100
0.0100    0.0100    0.0100    0.0100    0.0100    0.0100    0.0100    0.0100
0.0100    0.0100    0.0100    0.0100    0.0100    0.0100    0.0100    0.0100
0.0100    0.0100    0.0100    0.0100    0.0100    0.0100    0.0100    0.0100
0.0100    0.0100    0.0100    0.0100    0.0100    0.0100    0.0100    0.0100
0.0100    0.0100    0.0100    0.0100    0.0100    0.0100    0.0100    0.0100
0.0100    0.0100    0.0100    0.0100    0.0100    0.0100    0.0100    0.0100
0.0100    0.0100    0.0100    0.0100    0.0100    0.0100    0.0100    0.0100
0.0100    0.0100    0.0100    0.0100    0.0100    0.0100    0.0100    0.0100
0.0100    0.0100    0.0100    0.0100    0.0100    0.0100    0.0100    0.0100
0.0100    0.0100    0.0100    0.0100    0.0100    0.0100    0.0100    0.0100
0.0100    0.0100    0.0100    0.0100    0.0100    0.0100    0.0100    0.0100
0.0100    0.0100    0.0100    0.0100    0.0100    0.0100    0.0100    0.0100
0.0100    0.0100    0.0100    0.0100    0.0100    0.0100    0.0100    0.0100
0.0100    0.0100    0.0100    0.0100    0.0100    0.0100    0.0100    0.0100
0.0100    0.0100    0.0100    0.0100    0.0100    0.0100    0.0100    0.0100
0.0100    0.0100    0.0100    0.0100    0.0100    0.0100    0.0100    0.0100
0.0100    0.0100    0.0100    0.0100    0.0100    0.0100    0.0100    0.0100
0.0100    0.0100    0.0100    0.0100    0.0100    0.0100    0.0100    0.0100
0.0100    0.0100    0.0100    0.0100    0.0100    0.0100    0.0100    0.0100
0.0100    0.0100    0.0100    0.0100    0.0100    0.0100    0.0100    0.0100
0.0100    0.0100    0.0100    0.0100    0.0100    0.0100    0.0100    0.0100
0.0100    0.0100    0.0100    0.0100    0.0100    0.0100    0.0100    0.0100
0.0100    0.0100    0.0100    0.0100    0.0100    0.0100    0.0100    0.0100
0.0100    0.0100    0.0100    0.0100    0.0100    0.0100    0.0100    0.0100
0.0100    0.0100    0.0100    0.0100    0.0100    0.0100    0.0100    0.0100
0.0100    0.0100    0.0100    0.0100    0.0100    0.0100    0.0100    0.0100
0.0100    0.0100    0.0100    0.0100    0.0100    0.0100    0.0100    0.0100
0.0100    0.0100    0.0100    0.0100    0.0100    0.0100    0.0100    0.0100
0.0100    0.0100    0.0100    0.0100    0.0100    0.0100    0.0100    0.0100
0.0100    0.0100    0.0100    0.0100    0.0100    0.0100    0.0100    0.0100
0.0100    0.0100    0.0100    0.0100    0.0100    0.0100    0.0100    0.0100
0.0100    0.0100    0.0100    0.0100    0.0100    0.0100    0.0100    0.0100
0.0100    0.0100    0.0100    0.0100    0.0100    0.0100    0.0100    0.0100
0.0100    0.0100    0.0100    0.0100    0.0100    0.0100    0.0100    0.0100
0.0100    0.0100    0.0100    0.0100    0.0100    0.0100    0.0100    0.0100
0.0100    0.0100    0.0100    0.0100    0.0100    0.0100    0.0100    0.0100
0.0100    0.0100    0.0100    0.0100    0.0100    0.0100    0.0100    0.0100
0.0100    0.0100    0.0100    0.0100    0.0100    0.0100    0.0100    0.0100
0.0100    0.0100    0.0100    0.0100    0.0100    0.0100    0.0100    0.0100
0.0100    0.0100    0.0100    0.0100    0.0100    0.0100    0.0100    0.0100
0.0100    0.0100    0.0100    0.0100    0.0100    0.0100    0.0100    0.0100
0.0100    0.0100    0.0100    0.0100    0.0100    0.0100    0.0100    0.0100
0.0100    0.0100    0.0100    0.0100    0.0100    0.0100    0.0100    0.0100
0.0100    0.0100    0.0100    0.0100    0.0100    0.0100    0.0100    0.0100
0.0100    0.0100    0.0100    0.0100    0.0100    0.0100    0.0100    0.0100
0.0100    0.0100    0.0100    0.0100    0.0100    0.0100    0.0100    0.0100
0.0100    0.0100    0.0100    0.0100    0.0100    0.0100    0.0100    0.0100
0.0100    0.0100    0.0100    0.0100    0.0100    0.0100    0.0100    0.0100
0.0100    0.0100    0.0100    0.0100    0.0100    0.0100    0.0100    0.0100
0.0100    0.0100    0.0100    0.0100    0.0100    0.0100    0.0100    0.0100
0.0100    0.0100    0.0100    0.0100    0.0100    0.0100    0.0100    0.0100
0.0100    0.0100    0.0100    0.0100    0.0100    0.0100    0.0100    0.0100
0.0100    0.0100    0.0100    0.0100    0.0100    0.0100    0.0100    0.0100
0.0100    0.0100    0.0100    0.0100    0.0100    0.0100    0.0100    0.0100
0.0100    0.0100    0.0100    0.0100    0.0100    0.0100    0.0100    0.0100
0.0100    0.0100    0.0100    0.0100    0.0100    0.0100    0.0100    0.0100
0.0100    0.0100    0.0100    0.0100    0.0100    0.0100    0.0100    0.0100
0.0100    0.0100    0.0100    0.0100    0.0100    0.0100    0.0100    0.0100
0.0100    0.0100    0.0100    0.0100    0.0100    0.0100    0.0100    0.0100
0.0100    0.0100    0.0100    0.0100    0.0100    0.0100    0.0100    0.0100
0.0100    0.0100    0.0100    0.0100    0.0100    0.0100    0.0100    0.0100
0.0100    0.0100    0.0100    0.0100    0.0100    0.0100    0.0100    0.0100
0.0100    0.0100    0.0100    0.0100    0.0100    0.0100    0.0100    0.0100
0.0100    0.0100    0.0100    0.0100    0.0100    0.0100    0.0100    0.0100
0.0100    0.0100    0.0100    0.0100    0.0100    0.0100    0.0100    0.0100
0.0100    0.0100    0.0100    0.0100    0.0100    0.0100    0.0100    0.0100
</PP_RAB>
</PP_MESH>
<PP_LOCAL type="real"  size="600" columns="4">
-4.4169628945E+01   -4.4167451451E+01   -4.4160926399E+01   -4.4150077899E+01
-4.4134944843E+01   -4.4115579394E+01   -4.4092044935E+01   -4.4064413629E+01
-4.4032763738E+01   -4.3997176862E+01   -4.3957735204E+01   -4.3914519007E+01
-4.3867604230E+01   -4.3817060552E+01   -4.3762949723E+01   -4.3705324301E+01
-4.3644226738E+01   -4.3579688822E+01   -4.3511731412E+01   -4.3440364436E+01
-4.3365587104E+01   -4.3287388277E+01   -4.3205746960E+01   -4.3120632881E+01
-4.3032007102E+01   -4.2939822668E+01   -4.2844025245E+01   -4.2744553745E+01
-4.2641340941E+01   -4.2534314043E+01   -4.2423395254E+01   -4.2308502306E+01
-4.2189548969E+01   -4.2066445547E+01   -4.1939099365E+01   -4.1807415244E+01
-4.1671295980E+01   -4.1530642827E+01   -4.1385356006E+01   -4.1235335243E+01
-4.1080480377E+01   -4.0920692071E+01   -4.0755872677E+01   -4.0585927313E+01
-4.0410765233E+01   -4.0230301556E+01   -4.0044459427E+01   -3.9853172642E+01
-3.9656388749E+01   -3.9454072548E+01   -3.9246209878E+01   -3.9032811443E+01
-3.8813916394E+01   -3.8589595312E+01   -3.8359952202E+01   -3.8125125176E+01
-3.7885285575E+01   -3.7640635445E+01   -3.7391403458E+01   -3.7137839581E+01
-3.6880208943E+01   -3.6618785443E+01   -3.6353845684E+01   -3.6085663701E+01
-3.5814506863E+01   -3.5540633125E+01   -3.5264289633E+01   -3.4985712543E+01
-3.4705127828E+01   -3.4422752762E+01   -3.4138797806E+01   -3.3853468625E+01
-3.3566968022E+01   -3.3279497631E+01   -3.2991259255E+01   -3.2702455799E+01
-3.2413291755E+01   -3.2123973269E+01   -3.1834707810E+01   -3.1545703496E+01
-3.1257168139E+01   -3.0969308101E+01   -3.0682327021E+01   -3.0396424502E+01
-3.0111794828E+01   -2.9828625773E+01   -2.9547097547E+01   -2.9267381914E+01
-2.8989641501E+01   -2.8714029299E+01   -2.8440688358E+01   -2.8169751647E+01
-2.7901342065E+01   -2.7635572585E+01   -2.7372546482E+01   -2.7112357643E+01
-2.6855090927E+01   -2.6600822540E+01   -2.6349620438E+01   -2.6101544708E+01
-2.5856647945E+01   -2.5614975603E+01   -2.5376566316E+01   -2.5141452190E+01
-2.4909659055E+01   -2.4681206690E+01   -2.4456109007E+01   -2.4234374206E+01
-2.4016004893E+01   -2.3800998171E+01   -2.3589345696E+01   -2.3381033710E+01
-2.3176043043E+01   -2.2974349093E+01   -2.2775921776E+01   -2.2580725464E+01
-2.2388718886E+01   -2.2199855026E+01   -2.2014081001E+01   -2.1831337876E+01
-2.1651560737E+01   -2.1474677767E+01   -2.1300611822E+01   -2.1129284504E+01
-2.0960620100E+01   -2.0794546821E+01   -2.0630995852E+01   -2.0469901628E+01
-2.0311201337E+01   -2.0154834870E+01   -2.0000744274E+01   -1.9848877827E+01
-1.9699194415E+01   -1.9551669393E+01   -1.9406284377E+01   -1.9262991851E+01
-1.9121740802E+01   -1.8982490535E+01   -1.8845199893E+01   -1.8709828445E+01
-1.8576337342E+01   -1.8444688917E+01   -1.8314846649E+01   -1.8186775153E+01
-1.8060440145E+01   -1.7935808407E+01   -1.7812847755E+01   -1.7691527010E+01
-1.7571815969E+01   -1.7453685378E+01   -1.7337106892E+01   -1.7222053054E+01
-1.7108497253E+01   -1.6996413694E+01   -1.6885777358E+01   -1.6776563967E+01
-1.6668749944E+01   -1.6562312373E+01   -1.6457228957E+01   -1.6353477989E+01
-1.6251038327E+01   -1.6149889215E+01   -1.6050010499E+01   -1.5951382560E+01
-1.5853986082E+01   -1.5757802701E+01   -1.5662811900E+01   -1.5568989668E+01
-1.5476307978E+01   -1.5384730517E+01   -1.5294224646E+01   -1.5204774364E+01
-1.5116366983E+01   -1.5028983427E+01   -1.4942604839E+01   -1.4857214434E+01
-1.4772795525E+01   -1.4689331632E+01   -1.4606806623E+01   -1.4525204710E+01
-1.4444510424E+01   -1.4364708612E+01   -1.4285784431E+01   -1.4207723342E+01
-1.4130511111E+01   -1.4054133799E+01   -1.3978577776E+01   -1.3903829700E+01
-1.3829876440E+01   -1.3756705102E+01   -1.3684303688E+01   -1.3612660381E+01
-1.3541762278E+01   -1.3471596242E+01   -1.3402150288E+01   -1.3333414051E+01
-1.3265377954E+01   -1.3198034041E+01   -1.3131374331E+01   -1.3065387501E+01
-1.3000060914E+01   -1.2935383180E+01   -1.2871345272E+01   -1.2807938622E+01
-1.2745153709E+01   -1.2682981339E+01   -1.2621412554E+01   -1.2560438638E+01
-1.2500051016E+01   -1.2440241268E+01   -1.2381001141E+01   -1.2322322535E+01
-1.2264197505E+01   -1.2206618253E+01   -1.2149577128E+01   -1.2093066623E+01
-1.2037079368E+01   -1.1981608129E+01   -1.1926645806E+01   -1.1872185428E+01
-1.1818220150E+01   -1.1764743253E+01   -1.1711748137E+01   -1.1659228320E+01
-1.1607177439E+01   -1.1555589241E+01   -1.1504457585E+01   -1.1453776438E+01
-1.1403539872E+01   -1.1353742063E+01   -1.1304377290E+01   -1.1255439929E+01
-1.1206924452E+01   -1.1158825429E+01   -1.1111137521E+01   -1.1063855479E+01
-1.1016974144E+01   -1.0970488445E+01   -1.0924393394E+01   -1.0878684088E+01
-1.0833355705E+01   -1.0788403503E+01   -1.0743822819E+01   -1.0699609067E+01
-1.0655757733E+01   -1.0612264382E+01   -1.0569124647E+01   -1.0526334232E+01
-1.0483888912E+01   -1.0441784530E+01   -1.0400016993E+01   -1.0358582276E+01
-1.0317476415E+01   -1.0276695512E+01   -1.0236235727E+01   -1.0196093284E+01
-1.0156264462E+01   -1.0116745601E+01   -1.0077533095E+01   -1.0038623398E+01
-1.0000013013E+01   -9.9616985006E+00   -9.9236764728E+00   -9.8859435929E+00
-9.8484965748E+00   -9.8113321822E+00   -9.7744472274E+00   -9.7378385703E+00
-9.7015031178E+00   -9.6654378230E+00   -9.6296396839E+00   -9.5941057427E+00
-9.5588330854E+00   -9.5238188406E+00   -9.4890601788E+00   -9.4545543115E+00
-9.4202984910E+00   -9.3862900089E+00   -9.3525261961E+00   -9.3190044215E+00
-9.2857220916E+00   -9.2526766502E+00   -9.2198655769E+00   -9.1872863871E+00
-9.1549366313E+00   -9.1228138943E+00   -9.0909157947E+00   -9.0592399842E+00
-9.0277841472E+00   -8.9965460003E+00   -8.9655232913E+00   -8.9347137991E+00
-8.9041153332E+00   -8.8737257327E+00   -8.8435428664E+00   -8.8135646317E+00
-8.7837889546E+00   -8.7542137891E+00   -8.7248371164E+00   -8.6956569451E+00
-8.6666713100E+00   -8.6378782721E+00   -8.6092759183E+00   -8.5808623605E+00
-8.5526357355E+00   -8.5245942046E+00   -8.4967359532E+00   -8.4690591901E+00
-8.4415621477E+00   -8.4142430810E+00   -8.3871002676E+00   -8.3601320074E+00
-8.3333366218E+00   -8.3067124539E+00   -8.2802578679E+00   -8.2539712486E+00
-8.2278510015E+00   -8.2018955519E+00   -8.1761033452E+00   -8.1504728462E+00
-8.1250025387E+00   -8.0996909258E+00   -8.0745365288E+00   -8.0495378874E+00
-8.0246935596E+00   -8.0000021209E+00   -7.9754621642E+00   -7.9510722999E+00
-7.9268311551E+00   -7.9027373737E+00   -7.8787896160E+00   -7.8549865585E+00
-7.8313268937E+00   -7.8078093297E+00   -7.7844325902E+00   -7.7611954141E+00
-7.7380965551E+00   -7.7151347821E+00   -7.6923088783E+00   -7.6696176413E+00
-7.6470598827E+00   -7.6246344284E+00   -7.6023401178E+00   -7.5801758037E+00
-7.5581403526E+00   -7.5362326438E+00   -7.5144515698E+00   -7.4927960357E+00
-7.4712649593E+00   -7.4498572708E+00   -7.4285719125E+00   -7.4074078388E+00
-7.3863640161E+00   -7.3654394224E+00   -7.3446330474E+00   -7.3239438919E+00
-7.3033709681E+00   -7.2829132993E+00   -7.2625699198E+00   -7.2423398743E+00
-7.2222222185E+00   -7.2022160184E+00   -7.1823203503E+00   -7.1625343007E+00
-7.1428569662E+00   -7.1232874532E+00   -7.1038248779E+00   -7.0844683663E+00
-7.0652170535E+00   -7.0460700844E+00   -7.0270266129E+00   -7.0080858021E+00
-6.9892468241E+00   -6.9705088600E+00   -6.9518710993E+00   -6.9333327404E+00
-6.9148929904E+00   -6.8965510644E+00   -6.8783061862E+00   -6.8601575874E+00
-6.8421045081E+00   -6.8241461961E+00   -6.8062819071E+00   -6.7885109047E+00
-6.7708324600E+00   -6.7532458520E+00   -6.7357503667E+00   -6.7183452978E+00
-6.7010299462E+00   -6.6838036201E+00   -6.6666656345E+00   -6.6496153118E+00
-6.6326519809E+00   -6.6157749779E+00   -6.5989836454E+00   -6.5822773328E+00
-6.5656553960E+00   -6.5491171973E+00   -6.5326621057E+00   -6.5162894961E+00
-6.4999987501E+00   -6.4837892551E+00   -6.4676604048E+00   -6.4516115989E+00
-6.4356422430E+00   -6.4197517485E+00   -6.4039395328E+00   -6.3882050189E+00
-6.3725476353E+00   -6.3569668164E+00   -6.3414620020E+00   -6.3260326372E+00
-6.3106781727E+00   -6.2953980644E+00   -6.2801917735E+00   -6.2650587664E+00
-6.2499985145E+00   -6.2350104945E+00   -6.2200941879E+00   -6.2052490813E+00
-6.1904746661E+00   -6.1757704385E+00   -6.1611358997E+00   -6.1465705553E+00
-6.1320739158E+00   -6.1176454962E+00   -6.1032848160E+00   -6.0889913994E+00
-6.0747647749E+00   -6.0606044753E+00   -6.0465100380E+00   -6.0324810045E+00
-6.0185169206E+00   -6.0046173364E+00   -5.9907818059E+00   -5.9770098874E+00
-5.9633011433E+00   -5.9496551397E+00   -5.9360714470E+00   -5.9225496394E+00
-5.9090892950E+00   -5.8956899955E+00   -5.8823513267E+00   -5.8690728780E+00
-5.8558542424E+00   -5.8426950168E+00   -5.8295948015E+00   -5.8165532004E+00
-5.8035698211E+00   -5.7906442746E+00   -5.7777761752E+00   -5.7649651409E+00
-5.7522107929E+00   -5.7395127558E+00   -5.7268706575E+00   -5.7142841292E+00
-5.7017528051E+00   -5.6892763231E+00   -5.6768543238E+00   -5.6644864511E+00
-5.6521723521E+00   -5.6399116767E+00   -5.6277040781E+00   -5.6155492124E+00
-5.6034467386E+00   -5.5913963186E+00   -5.5793976175E+00   -5.5674503029E+00
-5.5555540454E+00   -5.5437085185E+00   -5.5319133982E+00   -5.5201683636E+00
-5.5084730963E+00   -5.4968272807E+00   -5.4852306037E+00   -5.4736827551E+00
-5.4621834269E+00   -5.4507323142E+00   -5.4393291143E+00   -5.4279735270E+00
-5.4166652549E+00   -5.4054040028E+00   -5.3941894780E+00   -5.3830213903E+00
-5.3718994519E+00   -5.3608233773E+00   -5.3497928834E+00   -5.3388076893E+00
-5.3278675167E+00   -5.3169720893E+00   -5.3061211331E+00   -5.2953143765E+00
-5.2845515499E+00   -5.2738323859E+00   -5.2631566195E+00   -5.2525239875E+00
-5.2419342292E+00   -5.2313870857E+00   -5.2208823002E+00   -5.2104196182E+00
-5.1999987870E+00   -5.1896195559E+00   -5.1792816764E+00   -5.1689849019E+00
-5.1587289876E+00   -5.1485136909E+00   -5.1383387708E+00   -5.1282039886E+00
-5.1181091071E+00   -5.1080538911E+00   -5.0980381074E+00   -5.0880615245E+00
-5.0781239125E+00   -5.0682250437E+00   -5.0583646920E+00   -5.0485426328E+00
-5.0387586436E+00   -5.0290125035E+00   -5.0193039933E+00   -5.0096328955E+00
-4.9999989941E+00   -4.9904020751E+00   -4.9808419259E+00   -4.9713183355E+00
-4.9618310946E+00   -4.9523799956E+00   -4.9429648323E+00   -4.9335854001E+00
-4.9242414961E+00   -4.9149329186E+00   -4.9056594678E+00   -4.8964209452E+00
-4.8872171538E+00   -4.8780478982E+00   -4.8689129843E+00   -4.8598122195E+00
-4.8507454127E+00   -4.8417123742E+00   -4.8327129157E+00   -4.8237468503E+00
-4.8148139925E+00   -4.8059141581E+00   -4.7970471643E+00   -4.7882128297E+00
-4.7794109742E+00   -4.7706414190E+00   -4.7619039866E+00   -4.7531985009E+00
-4.7445247869E+00   -4.7358826710E+00   -4.7272719809E+00   -4.7186925454E+00
-4.7101441948E+00   -4.7016267603E+00   -4.6931400746E+00   -4.6846839714E+00
-4.6762582858E+00   -4.6678628538E+00   -4.6594975129E+00   -4.6511621015E+00
-4.6428564594E+00   -4.6345804272E+00   -4.6263338470E+00   -4.6181165618E+00
-4.6099284158E+00   -4.6017692543E+00   -4.5936389236E+00   -4.5855372712E+00
-4.5774641456E+00   -4.5694193964E+00   -4.5614028743E+00   -4.5534144309E+00
-4.5454539190E+00   -4.5375211924E+00   -4.5296161058E+00   -4.5217385151E+00
-4.5138882769E+00   -4.5060652492E+00   -4.4982692906E+00   -4.4905002609E+00
-4.4827580209E+00   -4.4750424322E+00   -4.4673533573E+00   -4.4596906600E+00
-4.4520542046E+00   -4.4444438567E+00   -4.4368594825E+00   -4.4293009493E+00
-4.4217681253E+00   -4.4142608795E+00   -4.4067790818E+00   -4.3993226032E+00
-4.3918913152E+00   -4.3844850904E+00   -4.3771038023E+00   -4.3697473252E+00
-4.3624155340E+00   -4.3551083049E+00   -4.3478255145E+00   -4.3405670405E+00
</PP_LOCAL>
<PP_NONLOCAL>
<PP_BETA.1
type="real"
size="600"
columns="4"
index="1"
angular_momentum="0"
cutoff_radius_index=" 172"
cutoff_radius="    1.7100000000E+00" >
-1.6513589385E-09    9.1241362084E-02    1.8218120287E-01    2.7251999354E-01
3.6196216459E-01    4.5021802175E-01    5.3700558653E-01    6.2205233845E-01
7.0509683733E-01    7.8589020618E-01    8.6419745769E-01    9.3979864970E-01
1.0124898579E+00    1.0820839576E+00    1.1484112082E+00    1.2113196393E+00
1.2706752388E+00    1.3263619470E+00    1.3782814655E+00    1.4263528899E+00
1.4705121799E+00    1.5107114831E+00    1.5469183306E+00    1.5791147227E+00
1.6072961288E+00    1.6314704211E+00    1.6516567681E+00    1.6678845098E+00
1.6801920377E+00    1.6886257042E+00    1.6932387811E+00    1.6940904886E+00
1.6912451127E+00    1.6847712277E+00    1.6747410372E+00    1.6612298440E+00
1.6443156583E+00    1.6240789470E+00    1.6006025272E+00    1.5739716015E+00
1.5442739288E+00    1.5116001247E+00    1.4760440770E+00    1.4377034646E+00
1.3966803606E+00    1.3530819021E+00    1.3070210035E+00    1.2586170924E+00
1.2079968417E+00    1.1552948758E+00    1.1006544242E+00    1.0442278977E+00
9.8617736545E-01    9.2667490790E-01    8.6590282662E-01    8.0405369168E-01
7.4133021105E-01    6.7794490892E-01    6.1411960369E-01    5.5008467945E-01
4.8607814903E-01    4.2234451044E-01    3.5913340261E-01    2.9669807035E-01
2.3529365249E-01    1.7517531100E-01    1.1659622224E-01    5.9805455255E-02
5.0457645687E-03   -4.7448672294E-02   -9.7454540259E-02   -1.4476166134E-01
-1.8917522359E-01   -2.3051792910E-01   -2.6863202593E-01   -3.0338118958E-01
-3.3465222117E-01   -3.6235653123E-01   -3.8643138076E-01   -4.0684085421E-01
-4.2357654268E-01   -4.3665791952E-01   -4.4613239521E-01   -4.5207504281E-01
-4.5458799034E-01   -4.5379948166E-01   -4.4986261250E-01   -4.4295375327E-01
-4.3327067579E-01   -4.2103040537E-01   -4.0646682465E-01   -3.8982805962E-01
-3.7137368209E-01   -3.5137176598E-01   -3.3009583772E-01   -3.0782176277E-01
-2.8482461209E-01   -2.6137555249E-01   -2.3773880542E-01   -2.1416871727E-01
-1.9090698346E-01   -1.6818006575E-01   -1.4619683984E-01   -1.2514650642E-01
-1.0519679503E-01   -8.6492485234E-02   -6.9154264724E-02   -5.3277938333E-02
-3.8933996371E-02   -2.6167545013E-02   -1.4998594942E-02   -5.4226990014E-03
2.5880767693E-03    9.0838690364E-03    1.4135446778E-02    1.7832385605E-02
2.0281022663E-02    2.1602232521E-02    2.1929057310E-02    2.1404280010E-02
2.0177772064E-02    1.8404484195E-02    1.6240876964E-02    1.3839789081E-02
1.1345083996E-02    8.8880818710E-03    6.5854894014E-03    4.5373754072E-03
2.8244950456E-03    1.4962572690E-03    6.2472930428E-04    2.2251764939E-04
6.7356743899E-05    1.9264364266E-06   -4.9931281369E-06    1.2466904414E-06
7.3776058615E-07   -3.8149526783E-07    0.0000000000E+00    0.0000000000E+00
0.0000000000E+00    0.0000000000E+00    0.0000000000E+00    0.0000000000E+00
0.0000000000E+00    0.0000000000E+00    0.0000000000E+00    0.0000000000E+00
0.0000000000E+00    0.0000000000E+00    0.0000000000E+00    0.0000000000E+00
0.0000000000E+00    0.0000000000E+00    0.0000000000E+00    0.0000000000E+00
0.0000000000E+00    0.0000000000E+00    0.0000000000E+00    0.0000000000E+00
0.0000000000E+00    0.0000000000E+00    0.0000000000E+00    0.0000000000E+00
0.0000000000E+00    0.0000000000E+00    0.0000000000E+00    0.0000000000E+00
0.0000000000E+00    0.0000000000E+00    0.0000000000E+00    0.0000000000E+00
0. 0. 0. 0.
0. 0. 0. 0.
0. 0. 0. 0.
0. 0. 0. 0.
0. 0. 0. 0.
0. 0. 0. 0.
0. 0. 0. 0.
0. 0. 0. 0.
0. 0. 0. 0.
0. 0. 0. 0.
0. 0. 0. 0.
0. 0. 0. 0.
0. 0. 0. 0.
0. 0. 0. 0.
0. 0. 0. 0.
0. 0. 0. 0.
0. 0. 0. 0.
0. 0. 0. 0.
0. 0. 0. 0.
0. 0. 0. 0.
0. 0. 0. 0.
0. 0. 0. 0.
0. 0. 0. 0.
0. 0. 0. 0.
0. 0. 0. 0.
0. 0. 0. 0.
0. 0. 0. 0.
0. 0. 0. 0.
0. 0. 0. 0.
0. 0. 0. 0.
0. 0. 0. 0.
0. 0. 0. 0.
0. 0. 0. 0.
0. 0. 0. 0.
0. 0. 0. 0.
0. 0. 0. 0.
0. 0. 0. 0.
0. 0. 0. 0.
0. 0. 0. 0.
0. 0. 0. 0.
0. 0. 0. 0.
0. 0. 0. 0.
0. 0. 0. 0.
0. 0. 0. 0.
0. 0. 0. 0.
0. 0. 0. 0.
0. 0. 0. 0.
0. 0. 0. 0.
0. 0. 0. 0.
0. 0. 0. 0.
0. 0. 0. 0.
0. 0. 0. 0.
0. 0. 0. 0.
0. 0. 0. 0.
0. 0. 0. 0.
0. 0. 0. 0.
0. 0. 0. 0.
0. 0. 0. 0.
0. 0. 0. 0.
0. 0. 0. 0.
0. 0. 0. 0.
0. 0. 0. 0.
0. 0. 0. 0.
0. 0. 0. 0.
0. 0. 0. 0.
0. 0. 0. 0.
0. 0. 0. 0.
0. 0. 0. 0.
0. 0. 0. 0.
0. 0. 0. 0.
0. 0. 0. 0.