<UPF version="2.0.1">
<PP_INFO>
NOTE!!!!
This file is trimmed with a mesh size of 600 from the original version.
Trimming performed at 2023-03-31 09:10:05.122054 by trim_upf.py version 0.1.0

This pseudopotential file has been produced using the code
ONCVPSP  (Optimized Norm-Conservinng Vanderbilt PSeudopotential)
scalar-relativistic version 3.3.0 08/16/2017 by D. R. Hamann
The code is available through a link at URL www.mat-simresearch.com.
Documentation with the package provides a full discription of the
input data below.
While it is not required under the terms of the GNU GPL, it is
suggested that you cite D. R. Hamann, Phys. Rev. B 88, 085117 (2013)
in any publication using these pseudopotentials.
<PP_INPUTFILE>
# ATOM AND REFERENCE CONFIGURATION
# atsym  z   nc   nv     iexc    psfile
W 74.00   10    4       4      upf
#
#   n    l    f        energy (Ha)
1    0    2.00
2    0    2.00
2    1    6.00
3    0    2.00
3    1    6.00
3    2   10.00
4    0    2.00
4    1    6.00
4    2   10.00
4    3   14.00
5    0    2.00
5    1    6.00
5    2    4.00
6    0    2.00
#
# PSEUDOPOTENTIAL AND OPTIMIZATION
# lmax
3
#
#   l,   rc,      ep,       ncon, nbas, qcut
0   1.60000  -2.90589    4    8   7.40000
1   1.60000  -1.58765    4    8   8.00000
2   1.60000  -0.16465    4    9   7.40000
3   2.00000   0.15000    4    8   5.50000
#
# LOCAL POTENTIAL
# lloc, lpopt,  rc(5),   dvloc0
4    5   1.25000      0.00000
#
# VANDERBILT-KLEINMAN-BYLANDER PROJECTORs
# l, nproj, debl
0    2   2.69594
1    2   1.53763
2    2   1.00000
3    2   2.80000
#
# MODEL CORE CHARGE
# icmod, fcfact, rcfact
3   5.00000   1.36000
#
# LOG DERIVATIVE ANALYSIS
# epsh1, epsh2, depsh
-12.00   12.00    0.02
#
# OUTPUT GRID
# rlmax, drl
6.00    0.01
#
# TEST CONFIGURATIONS
# ncnf
0
# nvcnf
#   n    l    f
</PP_INPUTFILE>
</PP_INFO>
<!--                               -->
<!-- END OF HUMAN READABLE SECTION -->
<!--                               -->
<PP_HEADER
generated="Generated using ONCVPSP code by D. R. Hamann"
author="anonymous"
date="171031"
comment=""
element="W "
pseudo_type="NC"
relativistic="scalar"
is_ultrasoft="F"
is_paw="F"
is_coulomb="F"
has_so="F"
has_wfc="F"
has_gipaw="F"
core_correction="T"
functional="PBE"
z_valence="   14.00"
total_psenergy="  -1.37209264869E+02"
rho_cutoff="   1.39500000000E+01"
l_max="3"
l_local="-1"
mesh_size="   600"
number_of_wfc="4"
number_of_proj="8"/>
<PP_MESH>
<PP_R type="real"  size="600" columns="8">
0.0000    0.0100    0.0200    0.0300    0.0400    0.0500    0.0600    0.0700
0.0800    0.0900    0.1000    0.1100    0.1200    0.1300    0.1400    0.1500
0.1600    0.1700    0.1800    0.1900    0.2000    0.2100    0.2200    0.2300
0.2400    0.2500    0.2600    0.2700    0.2800    0.2900    0.3000    0.3100
0.3200    0.3300    0.3400    0.3500    0.3600    0.3700    0.3800    0.3900
0.4000    0.4100    0.4200    0.4300    0.4400    0.4500    0.4600    0.4700
0.4800    0.4900    0.5000    0.5100    0.5200    0.5300    0.5400    0.5500
0.5600    0.5700    0.5800    0.5900    0.6000    0.6100    0.6200    0.6300
0.6400    0.6500    0.6600    0.6700    0.6800    0.6900    0.7000    0.7100
0.7200    0.7300    0.7400    0.7500    0.7600    0.7700    0.7800    0.7900
0.8000    0.8100    0.8200    0.8300    0.8400    0.8500    0.8600    0.8700
0.8800    0.8900    0.9000    0.9100    0.9200    0.9300    0.9400    0.9500
0.9600    0.9700    0.9800    0.9900    1.0000    1.0100    1.0200    1.0300
1.0400    1.0500    1.0600    1.0700    1.0800    1.0900    1.1000    1.1100
1.1200    1.1300    1.1400    1.1500    1.1600    1.1700    1.1800    1.1900
1.2000    1.2100    1.2200    1.2300    1.2400    1.2500    1.2600    1.2700
1.2800    1.2900    1.3000    1.3100    1.3200    1.3300    1.3400    1.3500
1.3600    1.3700    1.3800    1.3900    1.4000    1.4100    1.4200    1.4300
1.4400    1.4500    1.4600    1.4700    1.4800    1.4900    1.5000    1.5100
1.5200    1.5300    1.5400    1.5500    1.5600    1.5700    1.5800    1.5900
1.6000    1.6100    1.6200    1.6300    1.6400    1.6500    1.6600    1.6700
1.6800    1.6900    1.7000    1.7100    1.7200    1.7300    1.7400    1.7500
1.7600    1.7700    1.7800    1.7900    1.8000    1.8100    1.8200    1.8300
1.8400    1.8500    1.8600    1.8700    1.8800    1.8900    1.9000    1.9100
1.9200    1.9300    1.9400    1.9500    1.9600    1.9700    1.9800    1.9900
2.0000    2.0100    2.0200    2.0300    2.0400    2.0500    2.0600    2.0700
2.0800    2.0900    2.1000    2.1100    2.1200    2.1300    2.1400    2.1500
2.1600    2.1700    2.1800    2.1900    2.2000    2.2100    2.2200    2.2300
2.2400    2.2500    2.2600    2.2700    2.2800    2.2900    2.3000    2.3100
2.3200    2.3300    2.3400    2.3500    2.3600    2.3700    2.3800    2.3900
2.4000    2.4100    2.4200    2.4300    2.4400    2.4500    2.4600    2.4700
2.4800    2.4900    2.5000    2.5100    2.5200    2.5300    2.5400    2.5500
2.5600    2.5700    2.5800    2.5900    2.6000    2.6100    2.6200    2.6300
2.6400    2.6500    2.6600    2.6700    2.6800    2.6900    2.7000    2.7100
2.7200    2.7300    2.7400    2.7500    2.7600    2.7700    2.7800    2.7900
2.8000    2.8100    2.8200    2.8300    2.8400    2.8500    2.8600    2.8700
2.8800    2.8900    2.9000    2.9100    2.9200    2.9300    2.9400    2.9500
2.9600    2.9700    2.9800    2.9900    3.0000    3.0100    3.0200    3.0300
3.0400    3.0500    3.0600    3.0700    3.0800    3.0900    3.1000    3.1100
3.1200    3.1300    3.1400    3.1500    3.1600    3.1700    3.1800    3.1900
3.2000    3.2100    3.2200    3.2300    3.2400    3.2500    3.2600    3.2700
3.2800    3.2900    3.3000    3.3100    3.3200    3.3300    3.3400    3.3500
3.3600    3.3700    3.3800    3.3900    3.4000    3.4100    3.4200    3.4300
3.4400    3.4500    3.4600    3.4700    3.4800    3.4900    3.5000    3.5100
3.5200    3.5300    3.5400    3.5500    3.5600    3.5700    3.5800    3.5900
3.6000    3.6100    3.6200    3.6300    3.6400    3.6500    3.6600    3.6700
3.6800    3.6900    3.7000    3.7100    3.7200    3.7300    3.7400    3.7500
3.7600    3.7700    3.7800    3.7900    3.8000    3.8100    3.8200    3.8300
3.8400    3.8500    3.8600    3.8700    3.8800    3.8900    3.9000    3.9100
3.9200    3.9300    3.9400    3.9500    3.9600    3.9700    3.9800    3.9900
4.0000    4.0100    4.0200    4.0300    4.0400    4.0500    4.0600    4.0700
4.0800    4.0900    4.1000    4.1100    4.1200    4.1300    4.1400    4.1500
4.1600    4.1700    4.1800    4.1900    4.2000    4.2100    4.2200    4.2300
4.2400    4.2500    4.2600    4.2700    4.2800    4.2900    4.3000    4.3100
4.3200    4.3300    4.3400    4.3500    4.3600    4.3700    4.3800    4.3900
4.4000    4.4100    4.4200    4.4300    4.4400    4.4500    4.4600    4.4700
4.4800    4.4900    4.5000    4.5100    4.5200    4.5300    4.5400    4.5500
4.5600    4.5700    4.5800    4.5900    4.6000    4.6100    4.6200    4.6300
4.6400    4.6500    4.6600    4.6700    4.6800    4.6900    4.7000    4.7100
4.7200    4.7300    4.7400    4.7500    4.7600    4.7700    4.7800    4.7900
4.8000    4.8100    4.8200    4.8300    4.8400    4.8500    4.8600    4.8700
4.8800    4.8900    4.9000    4.9100    4.9200    4.9300    4.9400    4.9500
4.9600    4.9700    4.9800    4.9900    5.0000    5.0100    5.0200    5.0300
5.0400    5.0500    5.0600    5.0700    5.0800    5.0900    5.1000    5.1100
5.1200    5.1300    5.1400    5.1500    5.1600    5.1700    5.1800    5.1900
5.2000    5.2100    5.2200    5.2300    5.2400    5.2500    5.2600    5.2700
5.2800    5.2900    5.3000    5.3100    5.3200    5.3300    5.3400    5.3500
5.3600    5.3700    5.3800    5.3900    5.4000    5.4100    5.4200    5.4300
5.4400    5.4500    5.4600    5.4700    5.4800    5.4900    5.5000    5.5100
5.5200    5.5300    5.5400    5.5500    5.5600    5.5700    5.5800    5.5900
5.6000    5.6100    5.6200    5.6300    5.6400    5.6500    5.6600    5.6700
5.6800    5.6900    5.7000    5.7100    5.7200    5.7300    5.7400    5.7500
5.7600    5.7700    5.7800    5.7900    5.8000    5.8100    5.8200    5.8300
5.8400    5.8500    5.8600    5.8700    5.8800    5.8900    5.9000    5.9100
5.9200    5.9300    5.9400    5.9500    5.9600    5.9700    5.9800    5.9900
</PP_R>
<PP_RAB type="real"  size="600" columns="8">
0.0100    0.0100    0.0100    0.0100    0.0100    0.0100    0.0100    0.0100
0.0100    0.0100    0.0100    0.0100    0.0100    0.0100    0.0100    0.0100
0.0100    0.0100    0.0100    0.0100    0.0100    0.0100    0.0100    0.0100
0.0100    0.0100    0.0100    0.0100    0.0100    0.0100    0.0100    0.0100
0.0100    0.0100    0.0100    0.0100    0.0100    0.0100    0.0100    0.0100
0.0100    0.0100    0.0100    0.0100    0.0100    0.0100    0.0100    0.0100
0.0100    0.0100    0.0100    0.0100    0.0100    0.0100    0.0100    0.0100
0.0100    0.0100    0.0100    0.0100    0.0100    0.0100    0.0100    0.0100
0.0100    0.0100    0.0100    0.0100    0.0100    0.0100    0.0100    0.0100
0.0100    0.0100    0.0100    0.0100    0.0100    0.0100    0.0100    0.0100
0.0100    0.0100    0.0100    0.0100    0.0100    0.0100    0.0100    0.0100
0.0100    0.0100    0.0100    0.0100    0.0100    0.0100    0.0100    0.0100
0.0100    0.0100    0.0100    0.0100    0.0100    0.0100    0.0100    0.0100
0.0100    0.0100    0.0100    0.0100    0.0100    0.0100    0.0100    0.0100
0.0100    0.0100    0.0100    0.0100    0.0100    0.0100    0.0100    0.0100
0.0100    0.0100    0.0100    0.0100    0.0100    0.0100    0.0100    0.0100
0.0100    0.0100    0.0100    0.0100    0.0100    0.0100    0.0100    0.0100
0.0100    0.0100    0.0100    0.0100    0.0100    0.0100    0.0100    0.0100
0.0100    0.0100    0.0100    0.0100    0.0100    0.0100    0.0100    0.0100
0.0100    0.0100    0.0100    0.0100    0.0100    0.0100    0.0100    0.0100
0.0100    0.0100    0.0100    0.0100    0.0100    0.0100    0.0100    0.0100
0.0100    0.0100    0.0100    0.0100    0.0100    0.0100    0.0100    0.0100
0.0100    0.0100    0.0100    0.0100    0.0100    0.0100    0.0100    0.0100
0.0100    0.0100    0.0100    0.0100    0.0100    0.0100    0.0100    0.0100
0.0100    0.0100    0.0100    0.0100    0.0100    0.0100    0.0100    0.0100
0.0100    0.0100    0.0100    0.0100    0.0100    0.0100    0.0100    0.0100
0.0100    0.0100    0.0100    0.0100    0.0100    0.0100    0.0100    0.0100
0.0100    0.0100    0.0100    0.0100    0.0100    0.0100    0.0100    0.0100
0.0100    0.0100    0.0100    0.0100    0.0100    0.0100    0.0100    0.0100
0.0100    0.0100    0.0100    0.0100    0.0100    0.0100    0.0100    0.0100
0.0100    0.0100    0.0100    0.0100    0.0100    0.0100    0.0100    0.0100
0.0100    0.0100    0.0100    0.0100    0.0100    0.0100    0.0100    0.0100
0.0100    0.0100    0.0100    0.0100    0.0100    0.0100    0.0100    0.0100
0.0100    0.0100    0.0100    0.0100    0.0100    0.0100    0.0100    0.0100
0.0100    0.0100    0.0100    0.0100    0.0100    0.0100    0.0100    0.0100
0.0100    0.0100    0.0100    0.0100    0.0100    0.0100    0.0100    0.0100
0.0100    0.0100    0.0100    0.0100    0.0100    0.0100    0.0100    0.0100
0.0100    0.0100    0.0100    0.0100    0.0100    0.0100    0.0100    0.0100
0.0100    0.0100    0.0100    0.0100    0.0100    0.0100    0.0100    0.0100
0.0100    0.0100    0.0100    0.0100    0.0100    0.0100    0.0100    0.0100
0.0100    0.0100    0.0100    0.0100    0.0100    0.0100    0.0100    0.0100
0.0100    0.0100    0.0100    0.0100    0.0100    0.0100    0.0100    0.0100
0.0100    0.0100    0.0100    0.0100    0.0100    0.0100    0.0100    0.0100
0.0100    0.0100    0.0100    0.0100    0.0100    0.0100    0.0100    0.0100
0.0100    0.0100    0.0100    0.0100    0.0100    0.0100    0.0100    0.0100
0.0100    0.0100    0.0100    0.0100    0.0100    0.0100    0.0100    0.0100
0.0100    0.0100    0.0100    0.0100    0.0100    0.0100    0.0100    0.0100
0.0100    0.0100    0.0100    0.0100    0.0100    0.0100    0.0100    0.0100
0.0100    0.0100    0.0100    0.0100    0.0100    0.0100    0.0100    0.0100
0.0100    0.0100    0.0100    0.0100    0.0100    0.0100    0.0100    0.0100
0.0100    0.0100    0.0100    0.0100    0.0100    0.0100    0.0100    0.0100
0.0100    0.0100    0.0100    0.0100    0.0100    0.0100    0.0100    0.0100
0.0100    0.0100    0.0100    0.0100    0.0100    0.0100    0.0100    0.0100
0.0100    0.0100    0.0100    0.0100    0.0100    0.0100    0.0100    0.0100
0.0100    0.0100    0.0100    0.0100    0.0100    0.0100    0.0100    0.0100
0.0100    0.0100    0.0100    0.0100    0.0100    0.0100    0.0100    0.0100
0.0100    0.0100    0.0100    0.0100    0.0100    0.0100    0.0100    0.0100
0.0100    0.0100    0.0100    0.0100    0.0100    0.0100    0.0100    0.0100
0.0100    0.0100    0.0100    0.0100    0.0100    0.0100    0.0100    0.0100
0.0100    0.0100    0.0100    0.0100    0.0100    0.0100    0.0100    0.0100
0.0100    0.0100    0.0100    0.0100    0.0100    0.0100    0.0100    0.0100
0.0100    0.0100    0.0100    0.0100    0.0100    0.0100    0.0100    0.0100
0.0100    0.0100    0.0100    0.0100    0.0100    0.0100    0.0100    0.0100
0.0100    0.0100    0.0100    0.0100    0.0100    0.0100    0.0100    0.0100
0.0100    0.0100    0.0100    0.0100    0.0100    0.0100    0.0100    0.0100
0.0100    0.0100    0.0100    0.0100    0.0100    0.0100    0.0100    0.0100
0.0100    0.0100    0.0100    0.0100    0.0100    0.0100    0.0100    0.0100
0.0100    0.0100    0.0100    0.0100    0.0100    0.0100    0.0100    0.0100
0.0100    0.0100    0.0100    0.0100    0.0100    0.0100    0.0100    0.0100
0.0100    0.0100    0.0100    0.0100    0.0100    0.0100    0.0100    0.0100
0.0100    0.0100    0.0100    0.0100    0.0100    0.0100    0.0100    0.0100
0.0100    0.0100    0.0100    0.0100    0.0100    0.0100    0.0100    0.0100
0.0100    0.0100    0.0100    0.0100    0.0100    0.0100    0.0100    0.0100
0.0100    0.0100    0.0100    0.0100    0.0100    0.0100    0.0100    0.0100
0.0100    0.0100    0.0100    0.0100    0.0100    0.0100    0.0100    0.0100
</PP_RAB>
</PP_MESH>
<PP_LOCAL type="real"  size="600" columns="4">
-5.1251293645E+01   -5.1247991737E+01   -5.1238087373E+01   -5.1221584677E+01
-5.1198490518E+01   -5.1168814501E+01   -5.1132568965E+01   -5.1089768967E+01
-5.1040432278E+01   -5.0984579360E+01   -5.0922233361E+01   -5.0853420088E+01
-5.0778167997E+01   -5.0696508167E+01   -5.0608474283E+01   -5.0514102614E+01
-5.0413431988E+01   -5.0306503775E+01   -5.0193361855E+01   -5.0074052605E+01
-4.9948624867E+01   -4.9817129931E+01   -4.9679621511E+01   -4.9536155722E+01
-4.9386791060E+01   -4.9231588382E+01   -4.9070610887E+01   -4.8903924096E+01
-4.8731595836E+01   -4.8553696225E+01   -4.8370297655E+01   -4.8181474778E+01
-4.7987304494E+01   -4.7787865940E+01   -4.7583240474E+01   -4.7373511670E+01
-4.7158765303E+01   -4.6939089343E+01   -4.6714573940E+01   -4.6485311420E+01
-4.6251396271E+01   -4.6012925134E+01   -4.5769996789E+01   -4.5522712148E+01
-4.5271174236E+01   -4.5015488177E+01   -4.4755761182E+01   -4.4492102526E+01
-4.4224623530E+01   -4.3953437538E+01   -4.3678659893E+01   -4.3400407910E+01
-4.3118800847E+01   -4.2833959872E+01   -4.2546008029E+01   -4.2255070199E+01
-4.1961273063E+01   -4.1664745053E+01   -4.1365616311E+01   -4.1064018637E+01
-4.0760085434E+01   -4.0453951658E+01   -4.0145753752E+01   -3.9835629590E+01
-3.9523718404E+01   -3.9210160721E+01   -3.8895098286E+01   -3.8578673984E+01
-3.8261031760E+01   -3.7942316534E+01   -3.7622674108E+01   -3.7302251074E+01
-3.6981194712E+01   -3.6659652885E+01   -3.6337773927E+01   -3.6015706527E+01
-3.5693599606E+01   -3.5371602188E+01   -3.5049863261E+01   -3.4728531637E+01
-3.4407755800E+01   -3.4087683749E+01   -3.3768462837E+01   -3.3450239593E+01
-3.3133159549E+01   -3.2817367054E+01   -3.2503005077E+01   -3.2190215014E+01
-3.1879136479E+01   -3.1569907097E+01   -3.1262662283E+01   -3.0957535028E+01
-3.0654655667E+01   -3.0354151658E+01   -3.0056147344E+01   -2.9760763721E+01
-2.9468118204E+01   -2.9178324388E+01   -2.8891491808E+01   -2.8607725705E+01
-2.8327126783E+01   -2.8049790975E+01   -2.7775809204E+01   -2.7505267148E+01
-2.7238245003E+01   -2.6974817255E+01   -2.6715052447E+01   -2.6459012946E+01
-2.6206754723E+01   -2.5958327120E+01   -2.5713772631E+01   -2.5473126678E+01
-2.5236417391E+01   -2.5003665389E+01   -2.4774883562E+01   -2.4550076859E+01
-2.4329242066E+01   -2.4112367601E+01   -2.3899433299E+01   -2.3690410202E+01
-2.3485260349E+01   -2.3283936573E+01   -2.3086382291E+01   -2.2892531287E+01
-2.2702307672E+01   -2.2515625386E+01   -2.2332387747E+01   -2.2152492726E+01
-2.1975837887E+01   -2.1802325001E+01   -2.1631859037E+01   -2.1464347948E+01
-2.1299702644E+01   -2.1137836877E+01   -2.0978667132E+01   -2.0822112542E+01
-2.0668094800E+01   -2.0516538091E+01   -2.0367369032E+01   -2.0220516622E+01
-2.0075912181E+01   -1.9933489308E+01   -1.9793183829E+01   -1.9654933755E+01
-1.9518679228E+01   -1.9384362472E+01   -1.9251927732E+01   -1.9121321221E+01
-1.8992491048E+01   -1.8865387152E+01   -1.8739961229E+01   -1.8616166660E+01
-1.8493958436E+01   -1.8373293082E+01   -1.8254128547E+01   -1.8136424306E+01
-1.8020141218E+01   -1.7905241162E+01   -1.7791687471E+01   -1.7679443673E+01
-1.7568477767E+01   -1.7458767215E+01   -1.7350299030E+01   -1.7243079530E+01
-1.7137115559E+01   -1.7032383259E+01   -1.6928850366E+01   -1.6826496493E+01
-1.6725302420E+01   -1.6625248579E+01   -1.6526316860E+01   -1.6428489228E+01
-1.6331748290E+01   -1.6236077622E+01   -1.6141461486E+01   -1.6047884753E+01
-1.5955332921E+01   -1.5863792084E+01   -1.5773248895E+01   -1.5683690523E+01
-1.5595104616E+01   -1.5507479261E+01   -1.5420802939E+01   -1.5335064484E+01
-1.5250253041E+01   -1.5166358023E+01   -1.5083369071E+01   -1.5001276012E+01
-1.4920068824E+01   -1.4839737598E+01   -1.4760272505E+01   -1.4681663766E+01
-1.4603901627E+01   -1.4526976330E+01   -1.4450878095E+01   -1.4375597101E+01
-1.4301123473E+01   -1.4227447266E+01   -1.4154558464E+01   -1.4082446969E+01
-1.4011102598E+01   -1.3940515086E+01   -1.3870674089E+01   -1.3801569184E+01
-1.3733189879E+01   -1.3665525621E+01   -1.3598565803E+01   -1.3532299780E+01
-1.3466716878E+01   -1.3401806406E+01   -1.3337557673E+01   -1.3273960001E+01
-1.3211002739E+01   -1.3148675280E+01   -1.3086967074E+01   -1.3025867646E+01
-1.2965366607E+01   -1.2905453672E+01   -1.2846118672E+01   -1.2787351571E+01
-1.2729142475E+01   -1.2671481647E+01   -1.2614359519E+01   -1.2557766702E+01
-1.2501693998E+01   -1.2446132406E+01   -1.2391073133E+01   -1.2336507602E+01
-1.2282427456E+01   -1.2228824565E+01   -1.2175691027E+01   -1.2123019177E+01
-1.2070801583E+01   -1.2019031052E+01   -1.1967700627E+01   -1.1916803584E+01
-1.1866333434E+01   -1.1816283919E+01   -1.1766649004E+01   -1.1717422878E+01
-1.1668599942E+01   -1.1620174807E+01   -1.1572142284E+01   -1.1524497378E+01
-1.1477235278E+01   -1.1430351349E+01   -1.1383841121E+01   -1.1337700284E+01
-1.1291924670E+01   -1.1246510253E+01   -1.1201453130E+01   -1.1156749517E+01
-1.1112395737E+01   -1.1068388211E+01   -1.1024723447E+01   -1.0981398034E+01
-1.0938408629E+01   -1.0895751953E+01   -1.0853424780E+01   -1.0811423930E+01
-1.0769746266E+01   -1.0728388680E+01   -1.0687348094E+01   -1.0646621453E+01
-1.0606205717E+01   -1.0566097862E+01   -1.0526294871E+01   -1.0486793736E+01
-1.0447591451E+01   -1.0408685015E+01   -1.0370071424E+01   -1.0331747677E+01
-1.0293710771E+01   -1.0255957699E+01   -1.0218485458E+01   -1.0181291041E+01
-1.0144371443E+01   -1.0107723663E+01   -1.0071344701E+01   -1.0035231564E+01
-9.9993812665E+00   -9.9637908314E+00   -9.9284572955E+00   -9.8933777092E+00
-9.8585491405E+00   -9.8239686771E+00   -9.7896334290E+00   -9.7555405313E+00
-9.7216871468E+00   -9.6880704686E+00   -9.6546877222E+00   -9.6215361683E+00
-9.5886131049E+00   -9.5559158693E+00   -9.5234418399E+00   -9.4911884386E+00
-9.4591531316E+00   -9.4273334313E+00   -9.3957268975E+00   -9.3643311380E+00
-9.3331438098E+00   -9.3021626195E+00   -9.2713853236E+00   -9.2408097287E+00
-9.2104336915E+00   -9.1802551184E+00   -9.1502719650E+00   -9.1204822359E+00
-9.0908839829E+00   -9.0614753051E+00   -9.0322543470E+00   -9.0032192972E+00
-8.9743683873E+00   -8.9456998902E+00   -8.9172121181E+00   -8.8889034213E+00
-8.8607721856E+00   -8.8328168311E+00   -8.8050358099E+00   -8.7774276041E+00
-8.7499907237E+00   -8.7227237049E+00   -8.6956251080E+00   -8.6686935154E+00
-8.6419275295E+00   -8.6153257711E+00   -8.5888868777E+00   -8.5626095018E+00
-8.5364923086E+00   -8.5105339756E+00   -8.4847331905E+00   -8.4590886502E+00
-8.4335990591E+00   -8.4082631291E+00   -8.3830795777E+00   -8.3580471280E+00
-8.3331645074E+00   -8.3084304475E+00   -8.2838436841E+00   -8.2594029560E+00
-8.2351070056E+00   -8.2109545788E+00   -8.1869444252E+00   -8.1630752979E+00
-8.1393459542E+00   -8.1157551559E+00   -8.0923016700E+00   -8.0689842687E+00
-8.0458017308E+00   -8.0227528416E+00   -7.9998363942E+00   -7.9770511898E+00
-7.9543960389E+00   -7.9318697615E+00   -7.9094711884E+00   -7.8871991615E+00
-7.8650525350E+00   -7.8430301758E+00   -7.8211309640E+00   -7.7993537935E+00
-7.7776975734E+00   -7.7561612273E+00   -7.7347436947E+00   -7.7134439300E+00
-7.6922609045E+00   -7.6711936073E+00   -7.6502410428E+00   -7.6294022346E+00
-7.6086762447E+00   -7.5880620851E+00   -7.5675588165E+00   -7.5471655234E+00
-7.5268811812E+00   -7.5067050507E+00   -7.4866364253E+00   -7.4666745171E+00
-7.4468186284E+00   -7.4270681239E+00   -7.4074213978E+00   -7.3878772766E+00
-7.3684346577E+00   -7.3490919476E+00   -7.3298489739E+00   -7.3107057203E+00
-7.2916620097E+00   -7.2727177867E+00   -7.2538732547E+00   -7.2351271818E+00
-7.2164787951E+00   -7.1979272202E+00   -7.1794714090E+00   -7.1611104342E+00
-7.1428434765E+00   -7.1246696399E+00   -7.1065880575E+00   -7.0885977871E+00
-7.0706981923E+00   -7.0528886152E+00   -7.0351684144E+00   -7.0175369896E+00
-6.9999938181E+00   -6.9825381451E+00   -6.9651693192E+00   -6.9478866887E+00
-6.9306895929E+00   -6.9135773808E+00   -6.8965494454E+00   -6.8796051659E+00
-6.8627439277E+00   -6.8459651233E+00   -6.8292681501E+00   -6.8126524104E+00
-6.7961173128E+00   -6.7796622720E+00   -6.7632867080E+00   -6.7469900468E+00
-6.7307717195E+00   -6.7146311629E+00   -6.6985678192E+00   -6.6825811358E+00
-6.6666705654E+00   -6.6508355660E+00   -6.6350756005E+00   -6.6193901373E+00
-6.6037786493E+00   -6.5882406147E+00   -6.5727755166E+00   -6.5573828426E+00
-6.5420620856E+00   -6.5268127429E+00   -6.5116343164E+00   -6.4965263128E+00
-6.4814882434E+00   -6.4665196239E+00   -6.4516199744E+00   -6.4367888197E+00
-6.4220256885E+00   -6.4073301143E+00   -6.3927016345E+00   -6.3781397909E+00
-6.3636441293E+00   -6.3492141998E+00   -6.3348495565E+00   -6.3205497575E+00
-6.3063143648E+00   -6.2921429446E+00   -6.2780350666E+00   -6.2639903047E+00
-6.2500082363E+00   -6.2360884429E+00   -6.2222305094E+00   -6.2084340246E+00
-6.1946985808E+00   -6.1810237740E+00   -6.1674092036E+00   -6.1538544726E+00
-6.1403591876E+00   -6.1269229585E+00   -6.1135453987E+00   -6.1002261248E+00
-6.0869647568E+00   -6.0737609182E+00   -6.0606142354E+00   -6.0475243383E+00
-6.0344908599E+00   -6.0215134364E+00   -6.0085917069E+00   -5.9957253139E+00
-5.9829139028E+00   -5.9701571220E+00   -5.9574546229E+00   -5.9448060599E+00
-5.9322110903E+00   -5.9196693742E+00   -5.9071805749E+00   -5.8947443581E+00
-5.8823603925E+00   -5.8700283497E+00   -5.8577479038E+00   -5.8455187318E+00
-5.8333405133E+00   -5.8212129306E+00   -5.8091356687E+00   -5.7971084150E+00
-5.7851308597E+00   -5.7732026954E+00   -5.7613236174E+00   -5.7494933233E+00
-5.7377115132E+00   -5.7259778899E+00   -5.7142921583E+00   -5.7026540259E+00
-5.6910632025E+00   -5.6795194003E+00   -5.6680223338E+00   -5.6565717197E+00
-5.6451672773E+00   -5.6338087277E+00   -5.6224957947E+00   -5.6112282039E+00
-5.6000056835E+00   -5.5888279635E+00   -5.5776947763E+00   -5.5666058562E+00
-5.5555609399E+00   -5.5445597659E+00   -5.5336020750E+00   -5.5226876099E+00
-5.5118161153E+00   -5.5009873380E+00   -5.4902010267E+00   -5.4794569322E+00
-5.4687548071E+00   -5.4580944061E+00   -5.4474754855E+00   -5.4368978038E+00
-5.4263611213E+00   -5.4158652000E+00   -5.4054098039E+00   -5.3949946988E+00
-5.3846196522E+00   -5.3742844335E+00   -5.3639888139E+00   -5.3537325660E+00
-5.3435154647E+00   -5.3333372861E+00   -5.3231978083E+00   -5.3130968110E+00
-5.3030340756E+00   -5.2930093850E+00   -5.2830225240E+00   -5.2730732788E+00
-5.2631614374E+00   -5.2532867891E+00   -5.2434491250E+00   -5.2336482378E+00
-5.2238839216E+00   -5.2141559721E+00   -5.2044641865E+00   -5.1948083635E+00
-5.1851883034E+00   -5.1756038078E+00   -5.1660546799E+00   -5.1565407243E+00
-5.1470617470E+00   -5.1376175554E+00   -5.1282079585E+00   -5.1188327664E+00
-5.1094917909E+00   -5.1001848450E+00   -5.0909117430E+00   -5.0816723007E+00
-5.0724663351E+00   -5.0632936647E+00   -5.0541541091E+00   -5.0450474893E+00
-5.0359736276E+00   -5.0269323475E+00   -5.0179234740E+00   -5.0089468330E+00
-5.0000022520E+00   -4.9910895593E+00   -4.9822085849E+00   -4.9733591597E+00
-4.9645411158E+00   -4.9557542867E+00   -4.9469985069E+00   -4.9382736120E+00
-4.9295794391E+00   -4.9209158260E+00   -4.9122826120E+00   -4.9036796373E+00
-4.8951067433E+00   -4.8865637725E+00   -4.8780505686E+00   -4.8695669762E+00
-4.8611128410E+00   -4.8526880100E+00   -4.8442923309E+00   -4.8359256529E+00
-4.8275878257E+00   -4.8192787006E+00   -4.8109981295E+00   -4.8027459654E+00
-4.7945220625E+00   -4.7863262758E+00   -4.7781584614E+00   -4.7700184763E+00
-4.7619061785E+00   -4.7538214270E+00   -4.7457640817E+00   -4.7377340035E+00
-4.7297310542E+00   -4.7217550966E+00   -4.7138059943E+00   -4.7058836119E+00
-4.6979878149E+00   -4.6901184698E+00   -4.6822754438E+00   -4.6744586051E+00
</PP_LOCAL>
<PP_NONLOCAL>
<PP_BETA.1
type="real"
size="600"
columns="4"
index="1"
angular_momentum="0"
cutoff_radius_index=" 208"
cutoff_radius="    2.0700000000E+00" >
-6.3607452638E-11    5.2772720355E-02    1.0548415055E-01    1.5807307092E-01
2.1047840195E-01    2.6263927213E-01    3.1449508337E-01    3.6598557297E-01
4.1705087168E-01    4.6763155698E-01    5.1766870126E-01    5.6710391425E-01
6.1587937961E-01    6.6393788522E-01    7.1122284736E-01    7.5767832870E-01
8.0324905033E-01    8.4788039829E-01    8.9151842499E-01    9.3410984631E-01
9.7560203503E-01    1.0159430117E+00    1.0550814338E+00    1.0929665847E+00
1.1295483633E+00    1.1647772760E+00    1.1986044325E+00    1.2309815467E+00
1.2618609444E+00    1.2911955795E+00    1.3189390595E+00    1.3450456834E+00
1.3694704915E+00    1.3921693299E+00    1.4130989306E+00    1.4322170076E+00
1.4494823715E+00    1.4648550617E+00    1.4782964981E+00    1.4897696515E+00
1.4992392340E+00    1.5066719084E+00    1.5120365159E+00    1.5153043227E+00
1.5164492825E+00    1.5154483154E+00    1.5122816001E+00    1.5069328780E+00
1.4993897670E+00    1.4896440824E+00    1.4776921611E+00    1.4635351870E+00
1.4471795143E+00    1.4286369837E+00    1.4079252290E+00    1.3850679702E+00
1.3600952874E+00    1.3330438738E+00    1.3039572613E+00    1.2728860161E+00
1.2398878999E+00    1.2050279920E+00    1.1683787700E+00    1.1300201438E+00
1.0900394413E+00    1.0485313417E+00    1.0055977543E+00    9.6134764140E-01
9.1589678182E-01    8.6936747608E-01    8.2188819115E-01    7.7359314540E-01
7.2462183429E-01    6.7511849794E-01    6.2523153253E-01    5.7511284807E-01
5.2491717554E-01    4.7480132745E-01    4.2492341591E-01    3.7544203352E-01
3.2651540233E-01    2.7830049727E-01    2.3095215026E-01    1.8462214223E-01
1.3945829026E-01    9.5603537473E-02    5.3195053582E-02    1.2363353990E-02
-2.6768554382E-02   -6.4085992570E-02   -9.9483386338E-02   -1.3286499251E-01
-1.6414556735E-01   -1.9325096978E-01   -2.2011869287E-01   -2.4469831718E-01
-2.6695188056E-01   -2.8685415928E-01   -3.0439285638E-01   -3.1956869368E-01
-3.3239540492E-01   -3.4289962820E-01   -3.5112069696E-01   -3.5711032943E-01
-3.6093221770E-01   -3.6266151824E-01   -3.6238424680E-01   -3.6019658146E-01
-3.5620407848E-01   -3.5052080636E-01   -3.4326840454E-01   -3.3457507362E-01
-3.2457450475E-01   -3.1340475656E-01   -3.0120708814E-01   -2.8812475746E-01
-2.7430179443E-01   -2.5988175842E-01   -2.4500648996E-01   -2.2981486625E-01
-2.1444157033E-01   -1.9901588317E-01   -1.8366050664E-01   -1.6849042556E-01
-1.5361186302E-01   -1.3912117111E-01   -1.2510381699E-01   -1.1163476137E-01
-9.8779089214E-02   -8.6592848507E-02   -7.5122728061E-02   -6.4406009393E-02
-5.4470628663E-02   -4.5335306514E-02   -3.7009759702E-02   -2.9494997550E-02
-2.2783693834E-02   -1.6860633609E-02   -1.1703234116E-02   -7.2821274884E-03
-3.5618004514E-03   -5.0128841588E-04    1.9450868072E-03    3.8269423527E-03
5.1970306222E-03    6.1104153229E-03    6.6236353812E-03    6.7938658686E-03
6.6780843411E-03    6.3322517019E-03    5.8105154757E-03    5.1644449868E-03
4.4423042147E-03    3.6883738712E-03    2.9423258485E-03    2.2386559417E-03
1.6065841248E-03    1.0679288672E-03    6.3585217830E-04    3.2904267825E-04
1.5888053861E-04    8.0705255826E-05    3.1536833724E-05    7.9436163222E-07
-4.6774959890E-06    1.2488759157E-08    1.1926680235E-06   -1.0083409209E-08
-2.1206570849E-07    0.0000000000E+00    0.0000000000E+00    0.0000000000E+00
0.0000000000E+00    0.0000000000E+00    0.0000000000E+00    0.0000000000E+00
0.0000000000E+00    0.0000000000E+00    0.0000000000E+00    0.0000000000E+00
0.0000000000E+00    0.0000000000E+00    0.0000000000E+00    0.0000000000E+00
0.0000000000E+00    0.0000000000E+00    0.0000000000E+00    0.0000000000E+00
0.0000000000E+00    0.0000000000E+00    0.0000000000E+00    0.0000000000E+00
0.0000000000E+00    0.0000000000E+00    0.0000000000E+00    0.0000000000E+00
0.0000000000E+00    0.0000000000E+00    0.0000000000E+00    0.0000000000E+00
0.0000000000E+00    0.0000000000E+00    0.0000000000E+00    0.0000000000E+00