<UPF version="2.0.1">
<PP_INFO>
NOTE!!!!
This file is trimmed with a mesh size of 600 from the original version.
Trimming performed at 2023-03-31 09:10:05.005549 by trim_upf.py version 0.1.0

This pseudopotential file has been produced using the code
ONCVPSP  (Optimized Norm-Conservinng Vanderbilt PSeudopotential)
scalar-relativistic version 3.3.0 08/16/2017 by D. R. Hamann
The code is available through a link at URL www.mat-simresearch.com.
Documentation with the package provides a full discription of the
input data below.
While it is not required under the terms of the GNU GPL, it is
suggested that you cite D. R. Hamann, Phys. Rev. B 88, 085117 (2013)
in any publication using these pseudopotentials.
<PP_INPUTFILE>
# ATOM AND REFERENCE CONFIGURATION
# atsym  z   nc   nv     iexc    psfile
Y 39.00    6    4       4      upf
#
#   n    l    f        energy (Ha)
1    0    2.00
2    0    2.00
2    1    6.00
3    0    2.00
3    1    6.00
3    2   10.00
4    0    2.00
4    1    6.00
4    2    1.00
5    0    2.00
#
# PSEUDOPOTENTIAL AND OPTIMIZATION
# lmax
2
#
#   l,   rc,      ep,       ncon, nbas, qcut
0   1.60000  -1.76377    4    7   7.00000
1   1.50000  -1.02592    4    9   8.60000
2   1.55000  -0.09245    4    9   8.80000
#
# LOCAL POTENTIAL
# lloc, lpopt,  rc(5),   dvloc0
4    5   1.50000      0.00000
#
# VANDERBILT-KLEINMAN-BYLANDER PROJECTORs
# l, nproj, debl
0    2   1.61300
1    2   2.00000
2    2   3.20000
#
# MODEL CORE CHARGE
# icmod, fcfact, rcfact
3   4.00000   1.35000
#
# LOG DERIVATIVE ANALYSIS
# epsh1, epsh2, depsh
-12.00   12.00    0.02
#
# OUTPUT GRID
# rlmax, drl
6.00    0.01
#
# TEST CONFIGURATIONS
# ncnf
0
# nvcnf
#   n    l    f
</PP_INPUTFILE>
</PP_INFO>
<!--                               -->
<!-- END OF HUMAN READABLE SECTION -->
<!--                               -->
<PP_HEADER
generated="Generated using ONCVPSP code by D. R. Hamann"
author="anonymous"
date="171031"
comment=""
element="Y "
pseudo_type="NC"
relativistic="scalar"
is_ultrasoft="F"
is_paw="F"
is_coulomb="F"
has_so="F"
has_wfc="F"
has_gipaw="F"
core_correction="T"
functional="PBE"
z_valence="   11.00"
total_psenergy="  -7.67654174970E+01"
rho_cutoff="   1.76500000000E+01"
l_max="2"
l_local="-1"
mesh_size="   600"
number_of_wfc="4"
number_of_proj="6"/>
<PP_MESH>
<PP_R type="real"  size="600" columns="8">
0.0000    0.0100    0.0200    0.0300    0.0400    0.0500    0.0600    0.0700
0.0800    0.0900    0.1000    0.1100    0.1200    0.1300    0.1400    0.1500
0.1600    0.1700    0.1800    0.1900    0.2000    0.2100    0.2200    0.2300
0.2400    0.2500    0.2600    0.2700    0.2800    0.2900    0.3000    0.3100
0.3200    0.3300    0.3400    0.3500    0.3600    0.3700    0.3800    0.3900
0.4000    0.4100    0.4200    0.4300    0.4400    0.4500    0.4600    0.4700
0.4800    0.4900    0.5000    0.5100    0.5200    0.5300    0.5400    0.5500
0.5600    0.5700    0.5800    0.5900    0.6000    0.6100    0.6200    0.6300
0.6400    0.6500    0.6600    0.6700    0.6800    0.6900    0.7000    0.7100
0.7200    0.7300    0.7400    0.7500    0.7600    0.7700    0.7800    0.7900
0.8000    0.8100    0.8200    0.8300    0.8400    0.8500    0.8600    0.8700
0.8800    0.8900    0.9000    0.9100    0.9200    0.9300    0.9400    0.9500
0.9600    0.9700    0.9800    0.9900    1.0000    1.0100    1.0200    1.0300
1.0400    1.0500    1.0600    1.0700    1.0800    1.0900    1.1000    1.1100
1.1200    1.1300    1.1400    1.1500    1.1600    1.1700    1.1800    1.1900
1.2000    1.2100    1.2200    1.2300    1.2400    1.2500    1.2600    1.2700
1.2800    1.2900    1.3000    1.3100    1.3200    1.3300    1.3400    1.3500
1.3600    1.3700    1.3800    1.3900    1.4000    1.4100    1.4200    1.4300
1.4400    1.4500    1.4600    1.4700    1.4800    1.4900    1.5000    1.5100
1.5200    1.5300    1.5400    1.5500    1.5600    1.5700    1.5800    1.5900
1.6000    1.6100    1.6200    1.6300    1.6400    1.6500    1.6600    1.6700
1.6800    1.6900    1.7000    1.7100    1.7200    1.7300    1.7400    1.7500
1.7600    1.7700    1.7800    1.7900    1.8000    1.8100    1.8200    1.8300
1.8400    1.8500    1.8600    1.8700    1.8800    1.8900    1.9000    1.9100
1.9200    1.9300    1.9400    1.9500    1.9600    1.9700    1.9800    1.9900
2.0000    2.0100    2.0200    2.0300    2.0400    2.0500    2.0600    2.0700
2.0800    2.0900    2.1000    2.1100    2.1200    2.1300    2.1400    2.1500
2.1600    2.1700    2.1800    2.1900    2.2000    2.2100    2.2200    2.2300
2.2400    2.2500    2.2600    2.2700    2.2800    2.2900    2.3000    2.3100
2.3200    2.3300    2.3400    2.3500    2.3600    2.3700    2.3800    2.3900
2.4000    2.4100    2.4200    2.4300    2.4400    2.4500    2.4600    2.4700
2.4800    2.4900    2.5000    2.5100    2.5200    2.5300    2.5400    2.5500
2.5600    2.5700    2.5800    2.5900    2.6000    2.6100    2.6200    2.6300
2.6400    2.6500    2.6600    2.6700    2.6800    2.6900    2.7000    2.7100
2.7200    2.7300    2.7400    2.7500    2.7600    2.7700    2.7800    2.7900
2.8000    2.8100    2.8200    2.8300    2.8400    2.8500    2.8600    2.8700
2.8800    2.8900    2.9000    2.9100    2.9200    2.9300    2.9400    2.9500
2.9600    2.9700    2.9800    2.9900    3.0000    3.0100    3.0200    3.0300
3.0400    3.0500    3.0600    3.0700    3.0800    3.0900    3.1000    3.1100
3.1200    3.1300    3.1400    3.1500    3.1600    3.1700    3.1800    3.1900
3.2000    3.2100    3.2200    3.2300    3.2400    3.2500    3.2600    3.2700
3.2800    3.2900    3.3000    3.3100    3.3200    3.3300    3.3400    3.3500
3.3600    3.3700    3.3800    3.3900    3.4000    3.4100    3.4200    3.4300
3.4400    3.4500    3.4600    3.4700    3.4800    3.4900    3.5000    3.5100
3.5200    3.5300    3.5400    3.5500    3.5600    3.5700    3.5800    3.5900
3.6000    3.6100    3.6200    3.6300    3.6400    3.6500    3.6600    3.6700
3.6800    3.6900    3.7000    3.7100    3.7200    3.7300    3.7400    3.7500
3.7600    3.7700    3.7800    3.7900    3.8000    3.8100    3.8200    3.8300
3.8400    3.8500    3.8600    3.8700    3.8800    3.8900    3.9000    3.9100
3.9200    3.9300    3.9400    3.9500    3.9600    3.9700    3.9800    3.9900
4.0000    4.0100    4.0200    4.0300    4.0400    4.0500    4.0600    4.0700
4.0800    4.0900    4.1000    4.1100    4.1200    4.1300    4.1400    4.1500
4.1600    4.1700    4.1800    4.1900    4.2000    4.2100    4.2200    4.2300
4.2400    4.2500    4.2600    4.2700    4.2800    4.2900    4.3000    4.3100
4.3200    4.3300    4.3400    4.3500    4.3600    4.3700    4.3800    4.3900
4.4000    4.4100    4.4200    4.4300    4.4400    4.4500    4.4600    4.4700
4.4800    4.4900    4.5000    4.5100    4.5200    4.5300    4.5400    4.5500
4.5600    4.5700    4.5800    4.5900    4.6000    4.6100    4.6200    4.6300
4.6400    4.6500    4.6600    4.6700    4.6800    4.6900    4.7000    4.7100
4.7200    4.7300    4.7400    4.7500    4.7600    4.7700    4.7800    4.7900
4.8000    4.8100    4.8200    4.8300    4.8400    4.8500    4.8600    4.8700
4.8800    4.8900    4.9000    4.9100    4.9200    4.9300    4.9400    4.9500
4.9600    4.9700    4.9800    4.9900    5.0000    5.0100    5.0200    5.0300
5.0400    5.0500    5.0600    5.0700    5.0800    5.0900    5.1000    5.1100
5.1200    5.1300    5.1400    5.1500    5.1600    5.1700    5.1800    5.1900
5.2000    5.2100    5.2200    5.2300    5.2400    5.2500    5.2600    5.2700
5.2800    5.2900    5.3000    5.3100    5.3200    5.3300    5.3400    5.3500
5.3600    5.3700    5.3800    5.3900    5.4000    5.4100    5.4200    5.4300
5.4400    5.4500    5.4600    5.4700    5.4800    5.4900    5.5000    5.5100
5.5200    5.5300    5.5400    5.5500    5.5600    5.5700    5.5800    5.5900
5.6000    5.6100    5.6200    5.6300    5.6400    5.6500    5.6600    5.6700
5.6800    5.6900    5.7000    5.7100    5.7200    5.7300    5.7400    5.7500
5.7600    5.7700    5.7800    5.7900    5.8000    5.8100    5.8200    5.8300
5.8400    5.8500    5.8600    5.8700    5.8800    5.8900    5.9000    5.9100
5.9200    5.9300    5.9400    5.9500    5.9600    5.9700    5.9800    5.9900
</PP_R>
<PP_RAB type="real"  size="600" columns="8">
0.0100    0.0100    0.0100    0.0100    0.0100    0.0100    0.0100    0.0100
0.0100    0.0100    0.0100    0.0100    0.0100    0.0100    0.0100    0.0100
0.0100    0.0100    0.0100    0.0100    0.0100    0.0100    0.0100    0.0100
0.0100    0.0100    0.0100    0.0100    0.0100    0.0100    0.0100    0.0100
0.0100    0.0100    0.0100    0.0100    0.0100    0.0100    0.0100    0.0100
0.0100    0.0100    0.0100    0.0100    0.0100    0.0100    0.0100    0.0100
0.0100    0.0100    0.0100    0.0100    0.0100    0.0100    0.0100    0.0100
0.0100    0.0100    0.0100    0.0100    0.0100    0.0100    0.0100    0.0100
0.0100    0.0100    0.0100    0.0100    0.0100    0.0100    0.0100    0.0100
0.0100    0.0100    0.0100    0.0100    0.0100    0.0100    0.0100    0.0100
0.0100    0.0100    0.0100    0.0100    0.0100    0.0100    0.0100    0.0100
0.0100    0.0100    0.0100    0.0100    0.0100    0.0100    0.0100    0.0100
0.0100    0.0100    0.0100    0.0100    0.0100    0.0100    0.0100    0.0100
0.0100    0.0100    0.0100    0.0100    0.0100    0.0100    0.0100    0.0100
0.0100    0.0100    0.0100    0.0100    0.0100    0.0100    0.0100    0.0100
0.0100    0.0100    0.0100    0.0100    0.0100    0.0100    0.0100    0.0100
0.0100    0.0100    0.0100    0.0100    0.0100    0.0100    0.0100    0.0100
0.0100    0.0100    0.0100    0.0100    0.0100    0.0100    0.0100    0.0100
0.0100    0.0100    0.0100    0.0100    0.0100    0.0100    0.0100    0.0100
0.0100    0.0100    0.0100    0.0100    0.0100    0.0100    0.0100    0.0100
0.0100    0.0100    0.0100    0.0100    0.0100    0.0100    0.0100    0.0100
0.0100    0.0100    0.0100    0.0100    0.0100    0.0100    0.0100    0.0100
0.0100    0.0100    0.0100    0.0100    0.0100    0.0100    0.0100    0.0100
0.0100    0.0100    0.0100    0.0100    0.0100    0.0100    0.0100    0.0100
0.0100    0.0100    0.0100    0.0100    0.0100    0.0100    0.0100    0.0100
0.0100    0.0100    0.0100    0.0100    0.0100    0.0100    0.0100    0.0100
0.0100    0.0100    0.0100    0.0100    0.0100    0.0100    0.0100    0.0100
0.0100    0.0100    0.0100    0.0100    0.0100    0.0100    0.0100    0.0100
0.0100    0.0100    0.0100    0.0100    0.0100    0.0100    0.0100    0.0100
0.0100    0.0100    0.0100    0.0100    0.0100    0.0100    0.0100    0.0100
0.0100    0.0100    0.0100    0.0100    0.0100    0.0100    0.0100    0.0100
0.0100    0.0100    0.0100    0.0100    0.0100    0.0100    0.0100    0.0100
0.0100    0.0100    0.0100    0.0100    0.0100    0.0100    0.0100    0.0100
0.0100    0.0100    0.0100    0.0100    0.0100    0.0100    0.0100    0.0100
0.0100    0.0100    0.0100    0.0100    0.0100    0.0100    0.0100    0.0100
0.0100    0.0100    0.0100    0.0100    0.0100    0.0100    0.0100    0.0100
0.0100    0.0100    0.0100    0.0100    0.0100    0.0100    0.0100    0.0100
0.0100    0.0100    0.0100    0.0100    0.0100    0.0100    0.0100    0.0100
0.0100    0.0100    0.0100    0.0100    0.0100    0.0100    0.0100    0.0100
0.0100    0.0100    0.0100    0.0100    0.0100    0.0100    0.0100    0.0100
0.0100    0.0100    0.0100    0.0100    0.0100    0.0100    0.0100    0.0100
0.0100    0.0100    0.0100    0.0100    0.0100    0.0100    0.0100    0.0100
0.0100    0.0100    0.0100    0.0100    0.0100    0.0100    0.0100    0.0100
0.0100    0.0100    0.0100    0.0100    0.0100    0.0100    0.0100    0.0100
0.0100    0.0100    0.0100    0.0100    0.0100    0.0100    0.0100    0.0100
0.0100    0.0100    0.0100    0.0100    0.0100    0.0100    0.0100    0.0100
0.0100    0.0100    0.0100    0.0100    0.0100    0.0100    0.0100    0.0100
0.0100    0.0100    0.0100    0.0100    0.0100    0.0100    0.0100    0.0100
0.0100    0.0100    0.0100    0.0100    0.0100    0.0100    0.0100    0.0100
0.0100    0.0100    0.0100    0.0100    0.0100    0.0100    0.0100    0.0100
0.0100    0.0100    0.0100    0.0100    0.0100    0.0100    0.0100    0.0100
0.0100    0.0100    0.0100    0.0100    0.0100    0.0100    0.0100    0.0100
0.0100    0.0100    0.0100    0.0100    0.0100    0.0100    0.0100    0.0100
0.0100    0.0100    0.0100    0.0100    0.0100    0.0100    0.0100    0.0100
0.0100    0.0100    0.0100    0.0100    0.0100    0.0100    0.0100    0.0100
0.0100    0.0100    0.0100    0.0100    0.0100    0.0100    0.0100    0.0100
0.0100    0.0100    0.0100    0.0100    0.0100    0.0100    0.0100    0.0100
0.0100    0.0100    0.0100    0.0100    0.0100    0.0100    0.0100    0.0100
0.0100    0.0100    0.0100    0.0100    0.0100    0.0100    0.0100    0.0100
0.0100    0.0100    0.0100    0.0100    0.0100    0.0100    0.0100    0.0100
0.0100    0.0100    0.0100    0.0100    0.0100    0.0100    0.0100    0.0100
0.0100    0.0100    0.0100    0.0100    0.0100    0.0100    0.0100    0.0100
0.0100    0.0100    0.0100    0.0100    0.0100    0.0100    0.0100    0.0100
0.0100    0.0100    0.0100    0.0100    0.0100    0.0100    0.0100    0.0100
0.0100    0.0100    0.0100    0.0100    0.0100    0.0100    0.0100    0.0100
0.0100    0.0100    0.0100    0.0100    0.0100    0.0100    0.0100    0.0100
0.0100    0.0100    0.0100    0.0100    0.0100    0.0100    0.0100    0.0100
0.0100    0.0100    0.0100    0.0100    0.0100    0.0100    0.0100    0.0100
0.0100    0.0100    0.0100    0.0100    0.0100    0.0100    0.0100    0.0100
0.0100    0.0100    0.0100    0.0100    0.0100    0.0100    0.0100    0.0100
0.0100    0.0100    0.0100    0.0100    0.0100    0.0100    0.0100    0.0100
0.0100    0.0100    0.0100    0.0100    0.0100    0.0100    0.0100    0.0100
0.0100    0.0100    0.0100    0.0100    0.0100    0.0100    0.0100    0.0100
0.0100    0.0100    0.0100    0.0100    0.0100    0.0100    0.0100    0.0100
0.0100    0.0100    0.0100    0.0100    0.0100    0.0100    0.0100    0.0100
</PP_RAB>
</PP_MESH>
<PP_LOCAL type="real"  size="600" columns="4">
-3.0193785294E+01   -3.0192710283E+01   -3.0189485769E+01   -3.0184113384E+01
-3.0176595824E+01   -3.0166936832E+01   -3.0155141167E+01   -3.0141214568E+01
-3.0125163703E+01   -3.0106996120E+01   -3.0086720184E+01   -3.0064345014E+01
-3.0039880408E+01   -3.0013336773E+01   -2.9984725043E+01   -2.9954056597E+01
-2.9921343178E+01   -2.9886596811E+01   -2.9849829714E+01   -2.9811054219E+01
-2.9770282689E+01   -2.9727527439E+01   -2.9682800664E+01   -2.9636114362E+01
-2.9587480271E+01   -2.9536909805E+01   -2.9484414001E+01   -2.9430003466E+01
-2.9373688337E+01   -2.9315478244E+01   -2.9255382287E+01   -2.9193409007E+01
-2.9129566386E+01   -2.9063861835E+01   -2.8996302207E+01   -2.8926893807E+01
-2.8855642421E+01   -2.8782553349E+01   -2.8707631445E+01   -2.8630881174E+01
-2.8552306672E+01   -2.8471911820E+01   -2.8389700319E+01   -2.8305675783E+01
-2.8219841836E+01   -2.8132202216E+01   -2.8042760882E+01   -2.7951522137E+01
-2.7858490743E+01   -2.7763672050E+01   -2.7667072116E+01   -2.7568697840E+01
-2.7468557076E+01   -2.7366658761E+01   -2.7263013024E+01   -2.7157631295E+01
-2.7050526399E+01   -2.6941712644E+01   -2.6831205891E+01   -2.6719023615E+01
-2.6605184945E+01   -2.6489710694E+01   -2.6372623375E+01   -2.6253947188E+01
-2.6133708014E+01   -2.6011933378E+01   -2.5888652404E+01   -2.5763895772E+01
-2.5637695648E+01   -2.5510085625E+01   -2.5381100649E+01   -2.5250776954E+01
-2.5119151987E+01   -2.4986264345E+01   -2.4852153711E+01   -2.4716860796E+01
-2.4580427289E+01   -2.4442895813E+01   -2.4304309882E+01   -2.4164713875E+01
-2.4024153010E+01   -2.3882673319E+01   -2.3740321633E+01   -2.3597145573E+01
-2.3453193529E+01   -2.3308514654E+01   -2.3163158848E+01   -2.3017176743E+01
-2.2870619680E+01   -2.2723539689E+01   -2.2575989451E+01   -2.2428022265E+01
-2.2279692004E+01   -2.2131053058E+01   -2.1982160275E+01   -2.1833068895E+01
-2.1683834473E+01   -2.1534512799E+01   -2.1385159808E+01   -2.1235831487E+01
-2.1086583780E+01   -2.0937472487E+01   -2.0788553161E+01   -2.0639881003E+01
-2.0491510760E+01   -2.0343496623E+01   -2.0195892121E+01   -2.0048750024E+01
-1.9902122248E+01   -1.9756059755E+01   -1.9610612470E+01   -1.9465829192E+01
-1.9321757510E+01   -1.9178443730E+01   -1.9035932796E+01   -1.8894268225E+01
-1.8753492041E+01   -1.8613644716E+01   -1.8474765111E+01   -1.8336890425E+01
-1.8200056151E+01   -1.8064296030E+01   -1.7929642011E+01   -1.7796124221E+01
-1.7663770931E+01   -1.7532608532E+01   -1.7402661512E+01   -1.7273952444E+01
-1.7146501967E+01   -1.7020328781E+01   -1.6895449644E+01   -1.6771879367E+01
-1.6649630823E+01   -1.6528714948E+01   -1.6409140756E+01   -1.6290915346E+01
-1.6174043923E+01   -1.6058529808E+01   -1.5944374461E+01   -1.5831577496E+01
-1.5720136700E+01   -1.5610048056E+01   -1.5501305754E+01   -1.5393902215E+01
-1.5287828094E+01   -1.5183072286E+01   -1.5079622029E+01   -1.4977462733E+01
-1.4876578063E+01   -1.4776949724E+01   -1.4678558100E+01   -1.4581384961E+01
-1.4485414365E+01   -1.4390634985E+01   -1.4297036005E+01   -1.4204599686E+01
-1.4113304833E+01   -1.4023128439E+01   -1.3934048988E+01   -1.3846049466E+01
-1.3759114260E+01   -1.3673228158E+01   -1.3588379753E+01   -1.3504560493E+01
-1.3421757093E+01   -1.3339951666E+01   -1.3259128148E+01   -1.3179272353E+01
-1.3100369748E+01   -1.3022405716E+01   -1.2945365963E+01   -1.2869236408E+01
-1.2794003120E+01   -1.2719652316E+01   -1.2646170357E+01   -1.2573543747E+01
-1.2501759117E+01   -1.2430803230E+01   -1.2360662969E+01   -1.2291325342E+01
-1.2222777478E+01   -1.2155006631E+01   -1.2088000179E+01   -1.2021745628E+01
-1.1956230621E+01   -1.1891442932E+01   -1.1827370484E+01   -1.1764001344E+01
-1.1701323737E+01   -1.1639326046E+01   -1.1577996825E+01   -1.1517324799E+01
-1.1457298877E+01   -1.1397908149E+01   -1.1339141901E+01   -1.1280989613E+01
-1.1223440967E+01   -1.1166485849E+01   -1.1110114354E+01   -1.1054316784E+01
-1.0999083655E+01   -1.0944405695E+01   -1.0890273842E+01   -1.0836679247E+01
-1.0783613270E+01   -1.0731067477E+01   -1.0679033639E+01   -1.0627503730E+01
-1.0576469915E+01   -1.0525924557E+01   -1.0475860202E+01   -1.0426269579E+01
-1.0377145594E+01   -1.0328481322E+01   -1.0280270005E+01   -1.0232505044E+01
-1.0185179990E+01   -1.0138288548E+01   -1.0091824560E+01   -1.0045782010E+01
-1.0000155012E+01   -9.9549378092E+00   -9.9101247682E+00   -9.8657103763E+00
-9.8216892367E+00   -9.7780560659E+00   -9.7348056907E+00   -9.6919330455E+00
-9.6494331699E+00   -9.6073012065E+00   -9.5655323992E+00   -9.5241220911E+00
-9.4830657231E+00   -9.4423588321E+00   -9.4019970494E+00   -9.3619760992E+00
-9.3222917967E+00   -9.2829400462E+00   -9.2439168393E+00   -9.2052182525E+00
-9.1668404448E+00   -9.1287796551E+00   -9.0910321992E+00   -9.0535944667E+00
-9.0164629174E+00   -8.9796340780E+00   -8.9431045379E+00   -8.9068709452E+00
-8.8709300025E+00   -8.8352784631E+00   -8.7999131260E+00   -8.7648308319E+00
-8.7300284592E+00   -8.6955029195E+00   -8.6612511541E+00   -8.6272701300E+00
-8.5935568371E+00   -8.5601082847E+00   -8.5269214993E+00   -8.4939935225E+00
-8.4613214098E+00   -8.4289022286E+00   -8.3967330588E+00   -8.3648109921E+00
-8.3331331328E+00   -8.3016965987E+00   -8.2704985230E+00   -8.2395360555E+00
-8.2088063655E+00   -8.1783066443E+00   -8.1480341082E+00   -8.1179860009E+00
-8.0881595976E+00   -8.0585522076E+00   -8.0291611778E+00   -7.9999838953E+00
-7.9710177911E+00   -7.9422603422E+00   -7.9137090740E+00   -7.8853615624E+00
-7.8572154360E+00   -7.8292683769E+00   -7.8015181212E+00   -7.7739624606E+00
-7.7465992417E+00   -7.7194263654E+00   -7.6924417866E+00   -7.6656435133E+00
-7.6390296044E+00   -7.6125981681E+00   -7.5863473605E+00   -7.5602753824E+00
-7.5343804776E+00   -7.5086609297E+00   -7.4831150598E+00   -7.4577412236E+00
-7.4325378090E+00   -7.4075032326E+00   -7.3826359379E+00   -7.3579343923E+00
-7.3333970848E+00   -7.3090225236E+00   -7.2848092340E+00   -7.2607557569E+00
-7.2368606461E+00   -7.2131224676E+00   -7.1895397979E+00   -7.1661112230E+00
-7.1428353369E+00   -7.1197107415E+00   -7.0967360456E+00   -7.0739098646E+00
-7.0512308201E+00   -7.0286975398E+00   -7.0063086579E+00   -6.9840628145E+00
-6.9619586564E+00   -6.9399948376E+00   -6.9181700188E+00   -6.8964828691E+00
-6.8749320657E+00   -6.8535162947E+00   -6.8322342520E+00   -6.8110846435E+00
-6.7900661863E+00   -6.7691776087E+00   -6.7484176514E+00   -6.7277850681E+00
-6.7072786256E+00   -6.6868971051E+00   -6.6666393021E+00   -6.6465040274E+00
-6.6264901074E+00   -6.6065963835E+00   -6.5868217152E+00   -6.5671649783E+00
-6.5476250651E+00   -6.5282008988E+00   -6.5088913901E+00   -6.4896954676E+00
-6.4706120889E+00   -6.4516401772E+00   -6.4327787989E+00   -6.4140270530E+00
-6.3953840060E+00   -6.3768487721E+00   -6.3584203167E+00   -6.3400975199E+00
-6.3218792932E+00   -6.3037646404E+00   -6.2857524843E+00   -6.2678416380E+00
-6.2500311413E+00   -6.2323199734E+00   -6.2147072689E+00   -6.1971936030E+00
-6.1797790144E+00   -6.1624635070E+00   -6.1452478832E+00   -6.1281299456E+00
-6.1111083595E+00   -6.0941816687E+00   -6.0773477475E+00   -6.0606059996E+00
-6.0439558767E+00   -6.0273967221E+00   -6.0109281061E+00   -5.9945494696E+00
-5.9782598894E+00   -5.9620586394E+00   -5.9459449863E+00   -5.9299181452E+00
-5.9139774703E+00   -5.8981222684E+00   -5.8823518539E+00   -5.8666655486E+00
-5.8510626814E+00   -5.8355425881E+00   -5.8201046118E+00   -5.8047481026E+00
-5.7894724175E+00   -5.7742769199E+00   -5.7591609801E+00   -5.7441239750E+00
-5.7291652878E+00   -5.7142843083E+00   -5.6994804325E+00   -5.6847530628E+00
-5.6701016075E+00   -5.6555254813E+00   -5.6410241047E+00   -5.6265969041E+00
-5.6122433118E+00   -5.5979627661E+00   -5.5837547106E+00   -5.5696185948E+00
-5.5555538738E+00   -5.5415600079E+00   -5.5276364632E+00   -5.5137827109E+00
-5.4999982275E+00   -5.4862824949E+00   -5.4726349999E+00   -5.4590552346E+00
-5.4455426961E+00   -5.4320968863E+00   -5.4187173123E+00   -5.4054034856E+00
-5.3921549231E+00   -5.3789711458E+00   -5.3658516799E+00   -5.3527960558E+00
-5.3398038087E+00   -5.3268744782E+00   -5.3140076084E+00   -5.3012027478E+00
-5.2884594492E+00   -5.2757772697E+00   -5.2631557707E+00   -5.2505945177E+00
-5.2380930803E+00   -5.2256510324E+00   -5.2132679517E+00   -5.2009434200E+00
-5.1886770230E+00   -5.1764683505E+00   -5.1643169958E+00   -5.1522225564E+00
-5.1401846331E+00   -5.1282028309E+00   -5.1162767582E+00   -5.1044060271E+00
-5.0925902533E+00   -5.0808290559E+00   -5.0691220578E+00   -5.0574688852E+00
-5.0458691677E+00   -5.0343225383E+00   -5.0228286334E+00   -5.0113870928E+00
-4.9999975593E+00   -4.9886596793E+00   -4.9773731021E+00   -4.9661374802E+00
-4.9549524695E+00   -4.9438177287E+00   -4.9327329197E+00   -4.9216977073E+00
-4.9107117595E+00   -4.8997747471E+00   -4.8888863438E+00   -4.8780462263E+00
-4.8672540742E+00   -4.8565095697E+00   -4.8458123981E+00   -4.8351622473E+00
-4.8245588078E+00   -4.8140017731E+00   -4.8034908393E+00   -4.7930257049E+00
-4.7826060714E+00   -4.7722316425E+00   -4.7619021249E+00   -4.7516172274E+00
-4.7413766616E+00   -4.7311801415E+00   -4.7210273835E+00   -4.7109181066E+00
-4.7008520319E+00   -4.6908288831E+00   -4.6808483863E+00   -4.6709102698E+00
-4.6610142641E+00   -4.6511601023E+00   -4.6413475195E+00   -4.6315762531E+00
-4.6218460427E+00   -4.6121566300E+00   -4.6025077591E+00   -4.5928991760E+00
-4.5833306290E+00   -4.5738018682E+00   -4.5643126461E+00   -4.5548627172E+00
-4.5454518378E+00   -4.5360797664E+00   -4.5267462634E+00   -4.5174510913E+00
-4.5081940145E+00   -4.4989747991E+00   -4.4897932135E+00   -4.4806490277E+00
-4.4715420136E+00   -4.4624719450E+00   -4.4534385977E+00   -4.4444417490E+00
-4.4354811782E+00   -4.4265566663E+00   -4.4176679960E+00   -4.4088149519E+00
-4.3999973203E+00   -4.3912148890E+00   -4.3824674477E+00   -4.3737547878E+00
-4.3650767022E+00   -4.3564329854E+00   -4.3478234339E+00   -4.3392478453E+00
-4.3307060191E+00   -4.3221977563E+00   -4.3137228595E+00   -4.3052811329E+00
-4.2968723819E+00   -4.2884964138E+00   -4.2801530373E+00   -4.2718420625E+00
-4.2635633010E+00   -4.2553165659E+00   -4.2471016717E+00   -4.2389184343E+00
-4.2307666712E+00   -4.2226462010E+00   -4.2145568440E+00   -4.2064984217E+00
-4.1984707568E+00   -4.1904736738E+00   -4.1825069982E+00   -4.1745705568E+00
-4.1666641779E+00   -4.1587876910E+00   -4.1509409269E+00   -4.1431237177E+00
-4.1353358966E+00   -4.1275772984E+00   -4.1198477587E+00   -4.1121471147E+00
-4.1044752047E+00   -4.0968318680E+00   -4.0892169454E+00   -4.0816302787E+00
-4.0740717110E+00   -4.0665410864E+00   -4.0590382502E+00   -4.0515630489E+00
-4.0441153302E+00   -4.0366949427E+00   -4.0293017362E+00   -4.0219355618E+00
-4.0145962713E+00   -4.0072837179E+00   -3.9999977557E+00   -3.9927382400E+00
-3.9855050271E+00   -3.9782979741E+00   -3.9711169395E+00   -3.9639617827E+00
-3.9568323639E+00   -3.9497285446E+00   -3.9426501872E+00   -3.9355971549E+00
-3.9285693121E+00   -3.9215665241E+00   -3.9145886572E+00   -3.9076355785E+00
-3.9007071563E+00   -3.8938032595E+00   -3.8869237581E+00   -3.8800685232E+00
-3.8732374265E+00   -3.8664303408E+00   -3.8596471397E+00   -3.8528876976E+00
-3.8461518900E+00   -3.8394395932E+00   -3.8327506842E+00   -3.8260850410E+00
-3.8194425425E+00   -3.8128230683E+00   -3.8062264989E+00   -3.7996527156E+00
-3.7931016006E+00   -3.7865730368E+00   -3.7800669079E+00   -3.7735830986E+00
-3.7671214941E+00   -3.7606819806E+00   -3.7542644449E+00   -3.7478687749E+00
-3.7414948588E+00   -3.7351425859E+00   -3.7288118462E+00   -3.7225025302E+00
-3.7162145296E+00   -3.7099477364E+00   -3.7037020434E+00   -3.6974773444E+00
-3.6912735337E+00   -3.6850905062E+00   -3.6789281577E+00   -3.6727863847E+00
</PP_LOCAL>
<PP_NONLOCAL>
<PP_BETA.1
type="real"
size="600"
columns="4"
index="1"
angular_momentum="0"
cutoff_radius_index=" 164"
cutoff_radius="    1.6300000000E+00" >
7.0537686803E-11    4.9197031552E-02    9.8359722245E-02    1.4745352768E-01
1.9644349866E-01    2.4529408457E-01    2.9396894352E-01    3.4243076160E-01
3.9064108323E-01    4.3856015476E-01    4.8614678315E-01    5.3335821164E-01
5.8015001403E-01    6.2647600916E-01    6.7228819686E-01    7.1753671674E-01
7.6216983069E-01    8.0613393000E-01    8.4937356776E-01    8.9183151687E-01
9.3344885399E-01    9.7416506938E-01    1.0139182025E+00    1.0526450026E+00
1.0902811145E+00    1.1267612879E+00    1.1620196088E+00    1.1959897538E+00
1.2286052634E+00    1.2597998337E+00    1.2895076256E+00    1.3176635881E+00
1.3442037939E+00    1.3690657859E+00    1.3921889315E+00    1.4135147824E+00
1.4329874372E+00    1.4505539045E+00    1.4661644639E+00    1.4797730214E+00
1.4913374579E+00    1.5008199665E+00    1.5081873776E+00    1.5134114672E+00
1.5164692484E+00    1.5173432410E+00    1.5160217189E+00    1.5124989320E+00
1.5067753006E+00    1.4988575815E+00    1.4887590020E+00    1.4764993623E+00
1.4621051043E+00    1.4456093447E+00    1.4270518730E+00    1.4064791130E+00
1.3839440479E+00    1.3595061074E+00    1.3332310194E+00    1.3051906240E+00
1.2754626530E+00    1.2441304730E+00    1.2112827963E+00    1.1770133579E+00
1.1414205628E+00    1.1046071039E+00    1.0666795530E+00    1.0277479271E+00
9.8792523319E-01    9.4732699226E-01    9.0607074789E-01    8.6427556006E-01
8.2206148864E-01    7.7954906900E-01    7.3685878320E-01    6.9411053006E-01
6.5142309716E-01    6.0891363830E-01    5.6669715953E-01    5.2488601703E-01
4.8358942997E-01    4.4291301141E-01    4.0295832020E-01    3.6382243664E-01
3.2559756457E-01    2.8837066238E-01    2.5222310516E-01    2.1723038005E-01
1.8346181662E-01    1.5098035389E-01    1.1984234522E-01    9.0097402206E-02
6.1788278230E-02    3.4950792331E-02    9.6137934163E-03   -1.4200835172E-02
-3.6478131149E-02   -5.7209969504E-02   -7.6394940365E-02   -9.4038189755E-02
-1.1015122470E-01   -1.2475168446E-01   -1.3786307974E-01   -1.4951450229E-01
-1.5974030702E-01   -1.6857976942E-01   -1.7607672094E-01   -1.8227916525E-01
-1.8723887829E-01   -1.9101099539E-01   -1.9365358842E-01   -1.9522723628E-01
-1.9579459201E-01   -1.9541994959E-01   -1.9416881365E-01   -1.9210747530E-01
-1.8930259695E-01   -1.8582080905E-01   -1.8172832165E-01   -1.7709055313E-01
-1.7197177881E-01   -1.6643480129E-01   -1.6054064494E-01   -1.5434827584E-01
-1.4791434901E-01   -1.4129298395E-01   -1.3453556953E-01   -1.2769059884E-01
-1.2080353441E-01   -1.1391670388E-01   -1.0706922583E-01   -1.0029696537E-01
-9.3632518685E-02   -8.7105225253E-02   -8.0741206788E-02   -7.4563430913E-02
-6.8591797922E-02   -6.2843248596E-02   -5.7331890573E-02   -5.2069141076E-02
-4.7063883153E-02   -4.2322632704E-02   -3.7849713475E-02   -3.3647436878E-02
-2.9716283710E-02   -2.6055084553E-02   -2.2661195581E-02   -1.9530666626E-02
-1.6658398528E-02   -1.4038298283E-02   -1.1663443898E-02   -9.5259649760E-03
-7.6174864381E-03   -5.9298972469E-03   -4.4560681807E-03   -3.1909288494E-03
-2.1315564148E-03   -1.2734708231E-03   -6.2048402396E-04   -1.8727120720E-04
3.3031355170E-05    7.7571159957E-05    2.6400390608E-05   -1.2777021948E-05
0. 0. 0. 0.
0. 0. 0. 0.
0. 0. 0. 0.
0. 0. 0. 0.
0. 0. 0. 0.
0. 0. 0. 0.
0. 0. 0. 0.
0. 0. 0. 0.
0. 0. 0. 0.
0. 0. 0. 0.
0. 0. 0. 0.
0. 0. 0. 0.
0. 0. 0. 0.
0. 0. 0. 0.
0. 0. 0. 0.
0. 0. 0. 0.
0. 0. 0. 0.
0. 0. 0. 0.
0. 0. 0. 0.
0. 0. 0. 0.
0. 0. 0. 0.
0. 0. 0. 0.
0. 0. 0. 0.
0. 0. 0. 0.
0. 0. 0. 0.
0. 0. 0. 0.
0. 0. 0. 0.
0. 0. 0. 0.
0. 0. 0. 0.
0. 0. 0. 0.
0. 0. 0. 0.
0. 0. 0. 0.
0. 0. 0. 0.
0. 0. 0. 0.
0. 0. 0. 0.
0. 0. 0. 0.
0. 0. 0. 0.
0. 0. 0. 0.
0. 0. 0. 0.
0. 0. 0. 0.
0. 0. 0. 0.
0. 0. 0. 0.
0. 0. 0. 0.
0. 0. 0. 0.
0. 0. 0. 0.
0. 0. 0. 0.
0. 0. 0. 0.
0. 0. 0. 0.
0. 0. 0. 0.
0. 0. 0. 0.
0. 0. 0. 0.
0. 0. 0. 0.
0. 0. 0. 0.
0. 0. 0. 0.
0. 0. 0. 0.
0. 0. 0. 0.
0. 0. 0. 0.
0. 0. 0. 0.
0. 0. 0. 0.
0. 0. 0. 0.
0. 0. 0. 0.
0. 0. 0. 0.
0. 0. 0. 0.
0. 0. 0. 0.
0. 0. 0. 0.
0. 0. 0. 0.
0. 0. 0. 0.
0. 0. 0. 0.
0. 0. 0. 0.
0. 0. 0. 0.
0. 0. 0. 0.
0. 0. 0. 0.
0. 0. 0. 0.
0. 0. 0. 0.
0. 0. 0. 0.
0. 0. 0. 0.
0. 0. 0. 0.
0. 0. 0. 0.
0. 0. 0. 0.