<UPF version="2.0.1">
<PP_INFO>
NOTE!!!!
This file is trimmed with a mesh size of 600 from the original version.
Trimming performed at 2023-03-31 09:10:04.959588 by trim_upf.py version 0.1.0

This pseudopotential file has been produced using the code
ONCVPSP  (Optimized Norm-Conservinng Vanderbilt PSeudopotential)
scalar-relativistic version 3.3.0 08/16/2017 by D. R. Hamann
The code is available through a link at URL www.mat-simresearch.com.
Documentation with the package provides a full discription of the
input data below.
While it is not required under the terms of the GNU GPL, it is
suggested that you cite D. R. Hamann, Phys. Rev. B 88, 085117 (2013)
in any publication using these pseudopotentials.
<PP_INPUTFILE>
# ATOM AND REFERENCE CONFIGURATION
# atsym  z   nc   nv     iexc    psfile
Zn 30.00    3    4       4      upf
#
#   n    l    f        energy (Ha)
1    0    2.00
2    0    2.00
2    1    6.00
3    0    2.00
3    1    6.00
3    2   10.00
4    0    2.00
#
# PSEUDOPOTENTIAL AND OPTIMIZATION
# lmax
2
#
#   l,   rc,      ep,       ncon, nbas, qcut
0   1.35000  -4.74920    4    9   8.80000
1   1.65000  -3.06498    4    9   9.00000
2   1.85000  -0.37265    4    9   9.00000
#
# LOCAL POTENTIAL
# lloc, lpopt,  rc(5),   dvloc0
4    5   1.30000      0.00000
#
# VANDERBILT-KLEINMAN-BYLANDER PROJECTORs
# l, nproj, debl
0    2   4.52948
1    2   3.02399
2    2   1.00000
#
# MODEL CORE CHARGE
# icmod, fcfact, rcfact
3   2.50000   1.65000
#
# LOG DERIVATIVE ANALYSIS
# epsh1, epsh2, depsh
-12.00   12.00    0.02
#
# OUTPUT GRID
# rlmax, drl
6.00    0.01
#
# TEST CONFIGURATIONS
# ncnf
0
# nvcnf
#   n    l    f
</PP_INPUTFILE>
</PP_INFO>
<!--                               -->
<!-- END OF HUMAN READABLE SECTION -->
<!--                               -->
<PP_HEADER
generated="Generated using ONCVPSP code by D. R. Hamann"
author="anonymous"
date="171031"
comment=""
element="Zn"
pseudo_type="NC"
relativistic="scalar"
is_ultrasoft="F"
is_paw="F"
is_coulomb="F"
has_so="F"
has_wfc="F"
has_gipaw="F"
core_correction="T"
functional="PBE"
z_valence="   20.00"
total_psenergy="  -4.13022818237E+02"
rho_cutoff="   1.32500000000E+01"
l_max="2"
l_local="-1"
mesh_size="   600"
number_of_wfc="4"
number_of_proj="6"/>
<PP_MESH>
<PP_R type="real"  size="600" columns="8">
0.0000    0.0100    0.0200    0.0300    0.0400    0.0500    0.0600    0.0700
0.0800    0.0900    0.1000    0.1100    0.1200    0.1300    0.1400    0.1500
0.1600    0.1700    0.1800    0.1900    0.2000    0.2100    0.2200    0.2300
0.2400    0.2500    0.2600    0.2700    0.2800    0.2900    0.3000    0.3100
0.3200    0.3300    0.3400    0.3500    0.3600    0.3700    0.3800    0.3900
0.4000    0.4100    0.4200    0.4300    0.4400    0.4500    0.4600    0.4700
0.4800    0.4900    0.5000    0.5100    0.5200    0.5300    0.5400    0.5500
0.5600    0.5700    0.5800    0.5900    0.6000    0.6100    0.6200    0.6300
0.6400    0.6500    0.6600    0.6700    0.6800    0.6900    0.7000    0.7100
0.7200    0.7300    0.7400    0.7500    0.7600    0.7700    0.7800    0.7900
0.8000    0.8100    0.8200    0.8300    0.8400    0.8500    0.8600    0.8700
0.8800    0.8900    0.9000    0.9100    0.9200    0.9300    0.9400    0.9500
0.9600    0.9700    0.9800    0.9900    1.0000    1.0100    1.0200    1.0300
1.0400    1.0500    1.0600    1.0700    1.0800    1.0900    1.1000    1.1100
1.1200    1.1300    1.1400    1.1500    1.1600    1.1700    1.1800    1.1900
1.2000    1.2100    1.2200    1.2300    1.2400    1.2500    1.2600    1.2700
1.2800    1.2900    1.3000    1.3100    1.3200    1.3300    1.3400    1.3500
1.3600    1.3700    1.3800    1.3900    1.4000    1.4100    1.4200    1.4300
1.4400    1.4500    1.4600    1.4700    1.4800    1.4900    1.5000    1.5100
1.5200    1.5300    1.5400    1.5500    1.5600    1.5700    1.5800    1.5900
1.6000    1.6100    1.6200    1.6300    1.6400    1.6500    1.6600    1.6700
1.6800    1.6900    1.7000    1.7100    1.7200    1.7300    1.7400    1.7500
1.7600    1.7700    1.7800    1.7900    1.8000    1.8100    1.8200    1.8300
1.8400    1.8500    1.8600    1.8700    1.8800    1.8900    1.9000    1.9100
1.9200    1.9300    1.9400    1.9500    1.9600    1.9700    1.9800    1.9900
2.0000    2.0100    2.0200    2.0300    2.0400    2.0500    2.0600    2.0700
2.0800    2.0900    2.1000    2.1100    2.1200    2.1300    2.1400    2.1500
2.1600    2.1700    2.1800    2.1900    2.2000    2.2100    2.2200    2.2300
2.2400    2.2500    2.2600    2.2700    2.2800    2.2900    2.3000    2.3100
2.3200    2.3300    2.3400    2.3500    2.3600    2.3700    2.3800    2.3900
2.4000    2.4100    2.4200    2.4300    2.4400    2.4500    2.4600    2.4700
2.4800    2.4900    2.5000    2.5100    2.5200    2.5300    2.5400    2.5500
2.5600    2.5700    2.5800    2.5900    2.6000    2.6100    2.6200    2.6300
2.6400    2.6500    2.6600    2.6700    2.6800    2.6900    2.7000    2.7100
2.7200    2.7300    2.7400    2.7500    2.7600    2.7700    2.7800    2.7900
2.8000    2.8100    2.8200    2.8300    2.8400    2.8500    2.8600    2.8700
2.8800    2.8900    2.9000    2.9100    2.9200    2.9300    2.9400    2.9500
2.9600    2.9700    2.9800    2.9900    3.0000    3.0100    3.0200    3.0300
3.0400    3.0500    3.0600    3.0700    3.0800    3.0900    3.1000    3.1100
3.1200    3.1300    3.1400    3.1500    3.1600    3.1700    3.1800    3.1900
3.2000    3.2100    3.2200    3.2300    3.2400    3.2500    3.2600    3.2700
3.2800    3.2900    3.3000    3.3100    3.3200    3.3300    3.3400    3.3500
3.3600    3.3700    3.3800    3.3900    3.4000    3.4100    3.4200    3.4300
3.4400    3.4500    3.4600    3.4700    3.4800    3.4900    3.5000    3.5100
3.5200    3.5300    3.5400    3.5500    3.5600    3.5700    3.5800    3.5900
3.6000    3.6100    3.6200    3.6300    3.6400    3.6500    3.6600    3.6700
3.6800    3.6900    3.7000    3.7100    3.7200    3.7300    3.7400    3.7500
3.7600    3.7700    3.7800    3.7900    3.8000    3.8100    3.8200    3.8300
3.8400    3.8500    3.8600    3.8700    3.8800    3.8900    3.9000    3.9100
3.9200    3.9300    3.9400    3.9500    3.9600    3.9700    3.9800    3.9900
4.0000    4.0100    4.0200    4.0300    4.0400    4.0500    4.0600    4.0700
4.0800    4.0900    4.1000    4.1100    4.1200    4.1300    4.1400    4.1500
4.1600    4.1700    4.1800    4.1900    4.2000    4.2100    4.2200    4.2300
4.2400    4.2500    4.2600    4.2700    4.2800    4.2900    4.3000    4.3100
4.3200    4.3300    4.3400    4.3500    4.3600    4.3700    4.3800    4.3900
4.4000    4.4100    4.4200    4.4300    4.4400    4.4500    4.4600    4.4700
4.4800    4.4900    4.5000    4.5100    4.5200    4.5300    4.5400    4.5500
4.5600    4.5700    4.5800    4.5900    4.6000    4.6100    4.6200    4.6300
4.6400    4.6500    4.6600    4.6700    4.6800    4.6900    4.7000    4.7100
4.7200    4.7300    4.7400    4.7500    4.7600    4.7700    4.7800    4.7900
4.8000    4.8100    4.8200    4.8300    4.8400    4.8500    4.8600    4.8700
4.8800    4.8900    4.9000    4.9100    4.9200    4.9300    4.9400    4.9500
4.9600    4.9700    4.9800    4.9900    5.0000    5.0100    5.0200    5.0300
5.0400    5.0500    5.0600    5.0700    5.0800    5.0900    5.1000    5.1100
5.1200    5.1300    5.1400    5.1500    5.1600    5.1700    5.1800    5.1900
5.2000    5.2100    5.2200    5.2300    5.2400    5.2500    5.2600    5.2700
5.2800    5.2900    5.3000    5.3100    5.3200    5.3300    5.3400    5.3500
5.3600    5.3700    5.3800    5.3900    5.4000    5.4100    5.4200    5.4300
5.4400    5.4500    5.4600    5.4700    5.4800    5.4900    5.5000    5.5100
5.5200    5.5300    5.5400    5.5500    5.5600    5.5700    5.5800    5.5900
5.6000    5.6100    5.6200    5.6300    5.6400    5.6500    5.6600    5.6700
5.6800    5.6900    5.7000    5.7100    5.7200    5.7300    5.7400    5.7500
5.7600    5.7700    5.7800    5.7900    5.8000    5.8100    5.8200    5.8300
5.8400    5.8500    5.8600    5.8700    5.8800    5.8900    5.9000    5.9100
5.9200    5.9300    5.9400    5.9500    5.9600    5.9700    5.9800    5.9900
</PP_R>
<PP_RAB type="real"  size="600" columns="8">
0.0100    0.0100    0.0100    0.0100    0.0100    0.0100    0.0100    0.0100
0.0100    0.0100    0.0100    0.0100    0.0100    0.0100    0.0100    0.0100
0.0100    0.0100    0.0100    0.0100    0.0100    0.0100    0.0100    0.0100
0.0100    0.0100    0.0100    0.0100    0.0100    0.0100    0.0100    0.0100
0.0100    0.0100    0.0100    0.0100    0.0100    0.0100    0.0100    0.0100
0.0100    0.0100    0.0100    0.0100    0.0100    0.0100    0.0100    0.0100
0.0100    0.0100    0.0100    0.0100    0.0100    0.0100    0.0100    0.0100
0.0100    0.0100    0.0100    0.0100    0.0100    0.0100    0.0100    0.0100
0.0100    0.0100    0.0100    0.0100    0.0100    0.0100    0.0100    0.0100
0.0100    0.0100    0.0100    0.0100    0.0100    0.0100    0.0100    0.0100
0.0100    0.0100    0.0100    0.0100    0.0100    0.0100    0.0100    0.0100
0.0100    0.0100    0.0100    0.0100    0.0100    0.0100    0.0100    0.0100
0.0100    0.0100    0.0100    0.0100    0.0100    0.0100    0.0100    0.0100
0.0100    0.0100    0.0100    0.0100    0.0100    0.0100    0.0100    0.0100
0.0100    0.0100    0.0100    0.0100    0.0100    0.0100    0.0100    0.0100
0.0100    0.0100    0.0100    0.0100    0.0100    0.0100    0.0100    0.0100
0.0100    0.0100    0.0100    0.0100    0.0100    0.0100    0.0100    0.0100
0.0100    0.0100    0.0100    0.0100    0.0100    0.0100    0.0100    0.0100
0.0100    0.0100    0.0100    0.0100    0.0100    0.0100    0.0100    0.0100
0.0100    0.0100    0.0100    0.0100    0.0100    0.0100    0.0100    0.0100
0.0100    0.0100    0.0100    0.0100    0.0100    0.0100    0.0100    0.0100
0.0100    0.0100    0.0100    0.0100    0.0100    0.0100    0.0100    0.0100
0.0100    0.0100    0.0100    0.0100    0.0100    0.0100    0.0100    0.0100
0.0100    0.0100    0.0100    0.0100    0.0100    0.0100    0.0100    0.0100
0.0100    0.0100    0.0100    0.0100    0.0100    0.0100    0.0100    0.0100
0.0100    0.0100    0.0100    0.0100    0.0100    0.0100    0.0100    0.0100
0.0100    0.0100    0.0100    0.0100    0.0100    0.0100    0.0100    0.0100
0.0100    0.0100    0.0100    0.0100    0.0100    0.0100    0.0100    0.0100
0.0100    0.0100    0.0100    0.0100    0.0100    0.0100    0.0100    0.0100
0.0100    0.0100    0.0100    0.0100    0.0100    0.0100    0.0100    0.0100
0.0100    0.0100    0.0100    0.0100    0.0100    0.0100    0.0100    0.0100
0.0100    0.0100    0.0100    0.0100    0.0100    0.0100    0.0100    0.0100
0.0100    0.0100    0.0100    0.0100    0.0100    0.0100    0.0100    0.0100
0.0100    0.0100    0.0100    0.0100    0.0100    0.0100    0.0100    0.0100
0.0100    0.0100    0.0100    0.0100    0.0100    0.0100    0.0100    0.0100
0.0100    0.0100    0.0100    0.0100    0.0100    0.0100    0.0100    0.0100
0.0100    0.0100    0.0100    0.0100    0.0100    0.0100    0.0100    0.0100
0.0100    0.0100    0.0100    0.0100    0.0100    0.0100    0.0100    0.0100
0.0100    0.0100    0.0100    0.0100    0.0100    0.0100    0.0100    0.0100
0.0100    0.0100    0.0100    0.0100    0.0100    0.0100    0.0100    0.0100
0.0100    0.0100    0.0100    0.0100    0.0100    0.0100    0.0100    0.0100
0.0100    0.0100    0.0100    0.0100    0.0100    0.0100    0.0100    0.0100
0.0100    0.0100    0.0100    0.0100    0.0100    0.0100    0.0100    0.0100
0.0100    0.0100    0.0100    0.0100    0.0100    0.0100    0.0100    0.0100
0.0100    0.0100    0.0100    0.0100    0.0100    0.0100    0.0100    0.0100
0.0100    0.0100    0.0100    0.0100    0.0100    0.0100    0.0100    0.0100
0.0100    0.0100    0.0100    0.0100    0.0100    0.0100    0.0100    0.0100
0.0100    0.0100    0.0100    0.0100    0.0100    0.0100    0.0100    0.0100
0.0100    0.0100    0.0100    0.0100    0.0100    0.0100    0.0100    0.0100
0.0100    0.0100    0.0100    0.0100    0.0100    0.0100    0.0100    0.0100
0.0100    0.0100    0.0100    0.0100    0.0100    0.0100    0.0100    0.0100
0.0100    0.0100    0.0100    0.0100    0.0100    0.0100    0.0100    0.0100
0.0100    0.0100    0.0100    0.0100    0.0100    0.0100    0.0100    0.0100
0.0100    0.0100    0.0100    0.0100    0.0100    0.0100    0.0100    0.0100
0.0100    0.0100    0.0100    0.0100    0.0100    0.0100    0.0100    0.0100
0.0100    0.0100    0.0100    0.0100    0.0100    0.0100    0.0100    0.0100
0.0100    0.0100    0.0100    0.0100    0.0100    0.0100    0.0100    0.0100
0.0100    0.0100    0.0100    0.0100    0.0100    0.0100    0.0100    0.0100
0.0100    0.0100    0.0100    0.0100    0.0100    0.0100    0.0100    0.0100
0.0100    0.0100    0.0100    0.0100    0.0100    0.0100    0.0100    0.0100
0.0100    0.0100    0.0100    0.0100    0.0100    0.0100    0.0100    0.0100
0.0100    0.0100    0.0100    0.0100    0.0100    0.0100    0.0100    0.0100
0.0100    0.0100    0.0100    0.0100    0.0100    0.0100    0.0100    0.0100
0.0100    0.0100    0.0100    0.0100    0.0100    0.0100    0.0100    0.0100
0.0100    0.0100    0.0100    0.0100    0.0100    0.0100    0.0100    0.0100
0.0100    0.0100    0.0100    0.0100    0.0100    0.0100    0.0100    0.0100
0.0100    0.0100    0.0100    0.0100    0.0100    0.0100    0.0100    0.0100
0.0100    0.0100    0.0100    0.0100    0.0100    0.0100    0.0100    0.0100
0.0100    0.0100    0.0100    0.0100    0.0100    0.0100    0.0100    0.0100
0.0100    0.0100    0.0100    0.0100    0.0100    0.0100    0.0100    0.0100
0.0100    0.0100    0.0100    0.0100    0.0100    0.0100    0.0100    0.0100
0.0100    0.0100    0.0100    0.0100    0.0100    0.0100    0.0100    0.0100
0.0100    0.0100    0.0100    0.0100    0.0100    0.0100    0.0100    0.0100
0.0100    0.0100    0.0100    0.0100    0.0100    0.0100    0.0100    0.0100
0.0100    0.0100    0.0100    0.0100    0.0100    0.0100    0.0100    0.0100
</PP_RAB>
</PP_MESH>
<PP_LOCAL type="real"  size="600" columns="4">
-6.2455058168E+01   -6.2453074689E+01   -6.2447127039E+01   -6.2437223480E+01
-6.2423376933E+01   -6.2405603801E+01   -6.2383922416E+01   -6.2358351203E+01
-6.2328906684E+01   -6.2295601406E+01   -6.2258441918E+01   -6.2217426869E+01
-6.2172545315E+01   -6.2123775280E+01   -6.2071082594E+01   -6.2014420059E+01
-6.1953726890E+01   -6.1888928468E+01   -6.1819936346E+01   -6.1746648499E+01
-6.1668949778E+01   -6.1586712554E+01   -6.1499797504E+01   -6.1408054542E+01
-6.1311323867E+01   -6.1209437126E+01   -6.1102218681E+01   -6.0989487001E+01
-6.0871056174E+01   -6.0746737563E+01   -6.0616341609E+01   -6.0479679817E+01
-6.0336566914E+01   -6.0186823198E+01   -6.0030277069E+01   -5.9866767707E+01
-5.9696147856E+01   -5.9518286649E+01   -5.9333072356E+01   -5.9140414951E+01
-5.8940248339E+01   -5.8732532117E+01   -5.8517252708E+01   -5.8294423782E+01
-5.8064085887E+01   -5.7826305306E+01   -5.7581172197E+01   -5.7328798158E+01
-5.7069313409E+01   -5.6802863800E+01   -5.6529607870E+01   -5.6249714150E+01
-5.5963358855E+01   -5.5670724055E+01   -5.5371996368E+01   -5.5067366133E+01
-5.4757027034E+01   -5.4441176076E+01   -5.4120013839E+01   -5.3793744931E+01
-5.3462578557E+01   -5.3126729147E+01   -5.2786416980E+01   -5.2441868752E+01
-5.2093318042E+01   -5.1741005627E+01   -5.1385179597E+01   -5.1026095250E+01
-5.0664014729E+01   -5.0299206402E+01   -4.9931943981E+01   -4.9562505414E+01
-4.9191171581E+01   -4.8818224852E+01   -4.8443947559E+01   -4.8068620454E+01
-4.7692521196E+01   -4.7315922941E+01   -4.6939093056E+01   -4.6562292005E+01
-4.6185772403E+01   -4.5809778271E+01   -4.5434544458E+01   -4.5060296233E+01
-4.4687249028E+01   -4.4315608297E+01   -4.3945569478E+01   -4.3577318033E+01
-4.3211029538E+01   -4.2846869811E+01   -4.2484995064E+01   -4.2125552053E+01
-4.1768678238E+01   -4.1414501932E+01   -4.1063142438E+01   -4.0714710185E+01
-4.0369306842E+01   -4.0027025442E+01   -3.9687950490E+01   -3.9352158086E+01
-3.9019716045E+01   -3.8690684045E+01   -3.8365113778E+01   -3.8043049146E+01
-3.7724526471E+01   -3.7409574751E+01   -3.7098215950E+01   -3.6790465330E+01
-3.6486331826E+01   -3.6185818459E+01   -3.5888922793E+01   -3.5595637415E+01
-3.5305950456E+01   -3.5019846116E+01   -3.4737305204E+01   -3.4458305674E+01
-3.4182823142E+01   -3.3910831369E+01   -3.3642302716E+01   -3.3377208520E+01
-3.3115519426E+01   -3.2857205632E+01   -3.2602237049E+01   -3.2350583376E+01
-3.2102214088E+01   -3.1857098325E+01   -3.1615204698E+01   -3.1376501007E+01
-3.1140953899E+01   -3.0908528396E+01   -3.0679187611E+01   -3.0452891598E+01
-3.0229597893E+01   -3.0009263554E+01   -2.9791846984E+01   -2.9577308925E+01
-2.9365611475E+01   -2.9156717750E+01   -2.8950591378E+01   -2.8747194715E+01
-2.8546488369E+01   -2.8348431996E+01   -2.8152983708E+01   -2.7960099695E+01
-2.7769734159E+01   -2.7581839260E+01   -2.7396365195E+01   -2.7213260381E+01
-2.7032471725E+01   -2.6853945020E+01   -2.6677625409E+01   -2.6503457919E+01
-2.6331388054E+01   -2.6161362397E+01   -2.5993329217E+01   -2.5827239047E+01
-2.5663045193E+01   -2.5500704192E+01   -2.5340176141E+01   -2.5181424959E+01
-2.5024418463E+01   -2.4869128392E+01   -2.4715530413E+01   -2.4563603789E+01
-2.4413331421E+01   -2.4264698628E+01   -2.4117691215E+01   -2.3972295035E+01
-2.3828493109E+01   -2.3686268344E+01   -2.3545613192E+01   -2.3406527325E+01
-2.3269008716E+01   -2.3133053496E+01   -2.2998658417E+01   -2.2865820241E+01
-2.2734535502E+01   -2.2604800343E+01   -2.2476608198E+01   -2.2349949585E+01
-2.2224815740E+01   -2.2101199292E+01   -2.1979092350E+01   -2.1858489440E+01
-2.1739373635E+01   -2.1621702019E+01   -2.1505418217E+01   -2.1390444772E+01
-2.1276702109E+01   -2.1164140924E+01   -2.1052742391E+01   -2.0942498915E+01
-2.0833405706E+01   -2.0725458704E+01   -2.0618632358E+01   -2.0512897875E+01
-2.0408237635E+01   -2.0304639313E+01   -2.0202089165E+01   -2.0100570257E+01
-2.0000066180E+01   -1.9900562076E+01   -1.9802043194E+01   -1.9704494994E+01
-1.9607903177E+01   -1.9512253740E+01   -1.9417532961E+01   -1.9323727382E+01
-1.9230823801E+01   -1.9138809271E+01   -1.9047671091E+01   -1.8957396801E+01
-1.8867974175E+01   -1.8779391218E+01   -1.8691636157E+01   -1.8604697442E+01
-1.8518563732E+01   -1.8433223900E+01   -1.8348667018E+01   -1.8264882362E+01
-1.8181859402E+01   -1.8099587796E+01   -1.8018057391E+01   -1.7937258215E+01
-1.7857180476E+01   -1.7777814552E+01   -1.7699150996E+01   -1.7621180524E+01
-1.7543894017E+01   -1.7467282515E+01   -1.7391337211E+01   -1.7316049455E+01
-1.7241410743E+01   -1.7167412718E+01   -1.7094047166E+01   -1.7021306012E+01
-1.6949181320E+01   -1.6877665285E+01   -1.6806750235E+01   -1.6736428626E+01
-1.6666693040E+01   -1.6597536183E+01   -1.6528950878E+01   -1.6460930070E+01
-1.6393466819E+01   -1.6326554296E+01   -1.6260185786E+01   -1.6194354680E+01
-1.6129054478E+01   -1.6064278784E+01   -1.6000021302E+01   -1.5936275839E+01
-1.5873036299E+01   -1.5810296684E+01   -1.5748051088E+01   -1.5686293699E+01
-1.5625018796E+01   -1.5564220747E+01   -1.5503894006E+01   -1.5444033115E+01
-1.5384632698E+01   -1.5325687462E+01   -1.5267192195E+01   -1.5209141765E+01
-1.5151531115E+01   -1.5094355268E+01   -1.5037609320E+01   -1.4981288440E+01
-1.4925387869E+01   -1.4869902921E+01   -1.4814828976E+01   -1.4760161486E+01
-1.4705895967E+01   -1.4652028002E+01   -1.4598553238E+01   -1.4545467385E+01
-1.4492766216E+01   -1.4440445565E+01   -1.4388501325E+01   -1.4336929448E+01
-1.4285725946E+01   -1.4234886886E+01   -1.4184408389E+01   -1.4134286634E+01
-1.4084517852E+01   -1.4035098329E+01   -1.3986024399E+01   -1.3937292451E+01
-1.3888898923E+01   -1.3840840300E+01   -1.3793113119E+01   -1.3745713963E+01
-1.3698639462E+01   -1.3651886290E+01   -1.3605451170E+01   -1.3559330867E+01
-1.3513522190E+01   -1.3468021992E+01   -1.3422827166E+01   -1.3377934650E+01
-1.3333341418E+01   -1.3289044490E+01   -1.3245040921E+01   -1.3201327807E+01
-1.3157902281E+01   -1.3114761515E+01   -1.3071902716E+01   -1.3029323130E+01
-1.2987020037E+01   -1.2944990752E+01   -1.2903232625E+01   -1.2861743041E+01
-1.2820519418E+01   -1.2779559206E+01   -1.2738859889E+01   -1.2698418982E+01
-1.2658234032E+01   -1.2618302616E+01   -1.2578622342E+01   -1.2539190850E+01
-1.2500005805E+01   -1.2461064905E+01   -1.2422365876E+01   -1.2383906471E+01
-1.2345684470E+01   -1.2307697684E+01   -1.2269943946E+01   -1.2232421119E+01
-1.2195127091E+01   -1.2158059776E+01   -1.2121217112E+01   -1.2084597064E+01
-1.2048197619E+01   -1.2012016791E+01   -1.1976052616E+01   -1.1940303153E+01
-1.1904766485E+01   -1.1869440718E+01   -1.1834323981E+01   -1.1799414423E+01
-1.1764710216E+01   -1.1730209554E+01   -1.1695910651E+01   -1.1661811742E+01
-1.1627911084E+01   -1.1594206952E+01   -1.1560697642E+01   -1.1527381470E+01
-1.1494256771E+01   -1.1461321900E+01   -1.1428575228E+01   -1.1396015148E+01
-1.1363640068E+01   -1.1331448418E+01   -1.1299438642E+01   -1.1267609203E+01
-1.1235958582E+01   -1.1204485276E+01   -1.1173187799E+01   -1.1142064682E+01
-1.1111114472E+01   -1.1080335731E+01   -1.1049727039E+01   -1.1019286991E+01
-1.0989014196E+01   -1.0958907279E+01   -1.0928964882E+01   -1.0899185659E+01
-1.0869568281E+01   -1.0840111430E+01   -1.0810813806E+01   -1.0781674121E+01
-1.0752691102E+01   -1.0723863487E+01   -1.0695190032E+01   -1.0666669502E+01
-1.0638300677E+01   -1.0610082350E+01   -1.0582013327E+01   -1.0554092425E+01
-1.0526318476E+01   -1.0498690323E+01   -1.0471206819E+01   -1.0443866833E+01
-1.0416669243E+01   -1.0389612940E+01   -1.0362696824E+01   -1.0335919811E+01
-1.0309280823E+01   -1.0282778797E+01   -1.0256412679E+01   -1.0230181427E+01
-1.0204084007E+01   -1.0178119399E+01   -1.0152286591E+01   -1.0126584583E+01
-1.0101012382E+01   -1.0075569010E+01   -1.0050253493E+01   -1.0025064871E+01
-1.0000002193E+01   -9.9750645158E+00   -9.9502509068E+00   -9.9255604423E+00
-9.9009922080E+00   -9.8765452985E+00   -9.8522188173E+00   -9.8280118766E+00
-9.8039235975E+00   -9.7799531096E+00   -9.7560995511E+00   -9.7323620684E+00
-9.7087398163E+00   -9.6852319578E+00   -9.6618376639E+00   -9.6385561137E+00
-9.6153864942E+00   -9.5923280000E+00   -9.5693798337E+00   -9.5465412052E+00
-9.5238113322E+00   -9.5011894396E+00   -9.4786747599E+00   -9.4562665327E+00
-9.4339640048E+00   -9.4117664300E+00   -9.3896730692E+00   -9.3676831903E+00
-9.3457960679E+00   -9.3240109834E+00   -9.3023272250E+00   -9.2807440873E+00
-9.2592608717E+00   -9.2378768857E+00   -9.2165914435E+00   -9.1954038654E+00
-9.1743134782E+00   -9.1533196145E+00   -9.1324216132E+00   -9.1116188193E+00
-9.0909105836E+00   -9.0702962629E+00   -9.0497752196E+00   -9.0293468222E+00
-9.0090104447E+00   -8.9887654666E+00   -8.9686112733E+00   -8.9485472553E+00
-8.9285728089E+00   -8.9086873355E+00   -8.8888902421E+00   -8.8691809407E+00
-8.8495588487E+00   -8.8300233884E+00   -8.8105739874E+00   -8.7912100784E+00
-8.7719310988E+00   -8.7527364912E+00   -8.7336257028E+00   -8.7145981859E+00
-8.6956533973E+00   -8.6767907987E+00   -8.6580098564E+00   -8.6393100414E+00
-8.6206908290E+00   -8.6021516992E+00   -8.5836921366E+00   -8.5653116299E+00
-8.5470096725E+00   -8.5287857618E+00   -8.5106393996E+00   -8.4925700921E+00
-8.4745773495E+00   -8.4566606862E+00   -8.4388196206E+00   -8.4210536753E+00
-8.4033623768E+00   -8.3857452557E+00   -8.3682018465E+00   -8.3507316874E+00
-8.3333343207E+00   -8.3160092923E+00   -8.2987561520E+00   -8.2815744533E+00
-8.2644637533E+00   -8.2474236130E+00   -8.2304535967E+00   -8.2135532725E+00
-8.1967222119E+00   -8.1799599901E+00   -8.1632661855E+00   -8.1466403801E+00
-8.1300821593E+00   -8.1135911118E+00   -8.0971668298E+00   -8.0808089084E+00
-8.0645169465E+00   -8.0482905458E+00   -8.0321293113E+00   -8.0160328514E+00
-8.0000007773E+00   -7.9840327035E+00   -7.9681282476E+00   -7.9522870301E+00
-7.9365086746E+00   -7.9207928076E+00   -7.9051390587E+00   -7.8895470603E+00
-7.8740164477E+00   -7.8585468592E+00   -7.8431379357E+00   -7.8277893211E+00
-7.8125006621E+00   -7.7972716081E+00   -7.7821018110E+00   -7.7669909258E+00
-7.7519386100E+00   -7.7369445236E+00   -7.7220083294E+00   -7.7071296929E+00
-7.6923082819E+00   -7.6775437670E+00   -7.6628358210E+00   -7.6481841197E+00
-7.6335883409E+00   -7.6190481650E+00   -7.6045632750E+00   -7.5901333562E+00
-7.5757580962E+00   -7.5614371850E+00   -7.5471703149E+00   -7.5329571808E+00
-7.5187974795E+00   -7.5046909104E+00   -7.4906371748E+00   -7.4766359766E+00
-7.4626870217E+00   -7.4487900182E+00   -7.4349446764E+00   -7.4211507089E+00
-7.4074078302E+00   -7.3937157569E+00   -7.3800742079E+00   -7.3664829041E+00
-7.3529415683E+00   -7.3394499255E+00   -7.3260077027E+00   -7.3126146288E+00
-7.2992704347E+00   -7.2859748534E+00   -7.2727276197E+00   -7.2595284704E+00
-7.2463771440E+00   -7.2332733813E+00   -7.2202169246E+00   -7.2072075182E+00
-7.1942449083E+00   -7.1813288428E+00   -7.1684590714E+00   -7.1556353458E+00
-7.1428574192E+00   -7.1301250467E+00   -7.1174379852E+00   -7.1047959932E+00
-7.0921988310E+00   -7.0796462606E+00   -7.0671380455E+00   -7.0546739512E+00
-7.0422537445E+00   -7.0298771942E+00   -7.0175440703E+00   -7.0052541449E+00
-6.9930071912E+00   -6.9808029843E+00   -6.9686413008E+00   -6.9565219189E+00
-6.9444446182E+00   -6.9324091799E+00   -6.9204153867E+00   -6.9084630230E+00
-6.8965518742E+00   -6.8846817278E+00   -6.8728523723E+00   -6.8610635977E+00
-6.8493151958E+00   -6.8376069593E+00   -6.8259386827E+00   -6.8143101618E+00
-6.8027211937E+00   -6.7911715769E+00   -6.7796611114E+00   -6.7681895985E+00
-6.7567568407E+00   -6.7453626420E+00   -6.7340068076E+00   -6.7226891441E+00
-6.7114094594E+00   -6.7001675626E+00   -6.6889632642E+00   -6.6777963758E+00
</PP_LOCAL>
<PP_NONLOCAL>
<PP_BETA.1
type="real"
size="600"
columns="4"
index="1"
angular_momentum="0"
cutoff_radius_index=" 192"
cutoff_radius="    1.9100000000E+00" >
7.6764058443E-09    8.8160051748E-02    1.7610782687E-01    2.6362900497E-01
3.5050525758E-01    4.3651244086E-01    5.2141901857E-01    6.0498478296E-01
6.8695993334E-01    7.6708456289E-01    8.4508859369E-01    9.2069218828E-01
9.9360665365E-01    1.0635358402E+00    1.1301780258E+00    1.1932282602E+00
1.2523811361E+00    1.3073339356E+00    1.3577900962E+00    1.4034629262E+00
1.4440794934E+00    1.4793846052E+00    1.5091447923E+00    1.5331522071E+00
1.5512283481E+00    1.5632275216E+00    1.5690399586E+00    1.5685945082E+00
1.5618608395E+00    1.5488510920E+00    1.5296209242E+00    1.5042699275E+00
1.4729413800E+00    1.4358213324E+00    1.3931370326E+00    1.3451547080E+00
1.2921767409E+00    1.2345382837E+00    1.1726033754E+00    1.1067606300E+00
1.0374185777E+00    9.6500074949E-01    8.8994059751E-01    8.1267635266E-01
7.3364591767E-01    6.5328189630E-01    5.7200685490E-01    4.9022890786E-01
4.0833771099E-01    3.2670093775E-01    2.4566130206E-01    1.6553417903E-01
8.6605861237E-02    9.1324733532E-03   -6.6660447129E-02   -1.4057771080E-01
-2.1245360196E-01   -2.8215040674E-01   -3.4955639557E-01   -4.1458332447E-01
-4.7716353100E-01   -5.3724671005E-01   -5.9479646239E-01   -6.4978671396E-01
-7.0219810679E-01   -7.5201446334E-01   -7.9921942355E-01   -8.4379335015E-01
-8.8571059048E-01   -9.2493717467E-01   -9.6142901878E-01   -9.9513068891E-01
-1.0259747682E+00   -1.0538818531E+00   -1.0787611895E+00   -1.1005119422E+00
-1.1190250752E+00   -1.1341858034E+00   -1.1458765614E+00   -1.1539804206E+00
-1.1583848718E+00   -1.1589858811E+00   -1.1556921172E+00   -1.1484292404E+00
-1.1371441410E+00   -1.1218090130E+00   -1.1024251487E+00   -1.0790263454E+00
-1.0516818223E+00   -1.0204985518E+00   -9.8562292487E-01   -9.4724168103E-01
-9.0558205049E-01   -8.6091107178E-01   -8.1353406764E-01   -7.6379228003E-01
-7.1205968470E-01   -6.5873902502E-01   -6.0425712282E-01   -5.4905954228E-01
-4.9360469871E-01   -4.3835751854E-01   -3.8378276915E-01   -3.3033818713E-01
-2.7846754038E-01   -2.2859376393E-01   -1.8111231077E-01   -1.3638485667E-01
-9.4733493488E-02   -5.6435536264E-02   -2.1719061179E-02    9.2407251604E-03
3.6324198351E-02    5.9469044176E-02    7.8670951783E-02    9.3983245727E-02
1.0551545154E-01    1.1343081353E-01    1.1794279932E-01    1.1931065528E-01
1.1783409339E-01    1.1384720897E-01    1.0771174421E-01    9.9809832618E-02
9.0536366675E-02    8.0291139082E-02    6.9470920753E-02    5.8461636118E-02
4.7630776540E-02    3.7320291826E-02    2.7839768137E-02    1.9461223889E-02
1.2417458694E-02    6.8524931410E-03    2.9419523012E-03    8.4273938406E-04
9.2775057357E-05   -2.1221669216E-05    1.4848635245E-05    3.0475050598E-06
-2.2552403855E-06   -2.1681988806E-07   -3.3403667635E-07    0.0000000000E+00
0.0000000000E+00    0.0000000000E+00    0.0000000000E+00    0.0000000000E+00
0.0000000000E+00    0.0000000000E+00    0.0000000000E+00    0.0000000000E+00
0.0000000000E+00    0.0000000000E+00    0.0000000000E+00    0.0000000000E+00
0.0000000000E+00    0.0000000000E+00    0.0000000000E+00    0.0000000000E+00
0.0000000000E+00    0.0000000000E+00    0.0000000000E+00    0.0000000000E+00
0.0000000000E+00    0.0000000000E+00    0.0000000000E+00    0.0000000000E+00
0.0000000000E+00    0.0000000000E+00    0.0000000000E+00    0.0000000000E+00
0.0000000000E+00    0.0000000000E+00    0.0000000000E+00    0.0000000000E+00
0.0000000000E+00    0.0000000000E+00    0.0000000000E+00    0.0000000000E+00
0.0000000000E+00    0.0000000000E+00    0.0000000000E+00    0.0000000000E+00
0.0000000000E+00    0.0000000000E+00    0.0000000000E+00    0.0000000000E+00
0.0000000000E+00    0.0000000000E+00    0.0000000000E+00    0.0000000000E+00
0. 0. 0. 0.
0. 0. 0. 0.
0. 0. 0. 0.
0. 0. 0. 0.
0. 0. 0. 0.
0. 0. 0. 0.
0. 0. 0. 0.
0. 0. 0. 0.
0. 0. 0. 0.
0. 0. 0. 0.
0. 0. 0. 0.
0. 0. 0. 0.
0. 0. 0. 0.
0. 0. 0. 0.
0. 0. 0. 0.
0. 0. 0. 0.
0. 0. 0. 0.
0. 0. 0. 0.
0. 0. 0. 0.
0. 0. 0. 0.
0. 0. 0. 0.
0. 0. 0. 0.
0. 0. 0. 0.
0. 0. 0. 0.
0. 0. 0. 0.
0. 0. 0. 0.
0. 0. 0. 0.
0. 0. 0. 0.
0. 0. 0. 0.
0. 0. 0. 0.
0. 0. 0. 0.
0. 0. 0. 0.
0. 0. 0. 0.
0. 0. 0. 0.
0. 0. 0. 0.
0. 0. 0. 0.
0. 0. 0. 0.
0. 0. 0. 0.