<UPF version="2.0.1">
<PP_INFO>
NOTE!!!!
This file is trimmed with a mesh size of 600 from the original version.
Trimming performed at 2023-03-31 09:10:04.921973 by trim_upf.py version 0.1.0

This pseudopotential file has been produced using the code
ONCVPSP  (Optimized Norm-Conservinng Vanderbilt PSeudopotential)
scalar-relativistic version 3.3.0 08/16/2017 by D. R. Hamann
The code is available through a link at URL www.mat-simresearch.com.
Documentation with the package provides a full discription of the
input data below.
While it is not required under the terms of the GNU GPL, it is
suggested that you cite D. R. Hamann, Phys. Rev. B 88, 085117 (2013)
in any publication using these pseudopotentials.
<PP_INPUTFILE>
# ATOM AND REFERENCE CONFIGURATION
# atsym  z   nc   nv     iexc    psfile
Zr 40.00    6    4       4      upf
#
#   n    l    f        energy (Ha)
1    0    2.00
2    0    2.00
2    1    6.00
3    0    2.00
3    1    6.00
3    2   10.00
4    0    2.00
4    1    6.00
4    2    2.00
5    0    2.00
#
# PSEUDOPOTENTIAL AND OPTIMIZATION
# lmax
2
#
#   l,   rc,      ep,       ncon, nbas, qcut
0   1.55000  -2.00302    4    8   7.40000
1   1.55000  -1.19294    4    8   8.00000
2   1.50000  -0.13226    4    8   7.80000
#
# LOCAL POTENTIAL
# lloc, lpopt,  rc(5),   dvloc0
4    5   1.45000      0.00000
#
# VANDERBILT-KLEINMAN-BYLANDER PROJECTORs
# l, nproj, debl
0    2   1.83987
1    2   2.00000
2    2   2.00000
#
# MODEL CORE CHARGE
# icmod, fcfact, rcfact
3   5.00000   1.35000
#
# LOG DERIVATIVE ANALYSIS
# epsh1, epsh2, depsh
-12.00   12.00    0.02
#
# OUTPUT GRID
# rlmax, drl
6.00    0.01
#
# TEST CONFIGURATIONS
# ncnf
0
# nvcnf
#   n    l    f
</PP_INPUTFILE>
</PP_INFO>
<!--                               -->
<!-- END OF HUMAN READABLE SECTION -->
<!--                               -->
<PP_HEADER
generated="Generated using ONCVPSP code by D. R. Hamann"
author="anonymous"
date="171031"
comment=""
element="Zr"
pseudo_type="NC"
relativistic="scalar"
is_ultrasoft="F"
is_paw="F"
is_coulomb="F"
has_so="F"
has_wfc="F"
has_gipaw="F"
core_correction="T"
functional="PBE"
z_valence="   12.00"
total_psenergy="  -9.42051434009E+01"
rho_cutoff="   1.62100000000E+01"
l_max="2"
l_local="-1"
mesh_size="   600"
number_of_wfc="4"
number_of_proj="6"/>
<PP_MESH>
<PP_R type="real"  size="600" columns="8">
0.0000    0.0100    0.0200    0.0300    0.0400    0.0500    0.0600    0.0700
0.0800    0.0900    0.1000    0.1100    0.1200    0.1300    0.1400    0.1500
0.1600    0.1700    0.1800    0.1900    0.2000    0.2100    0.2200    0.2300
0.2400    0.2500    0.2600    0.2700    0.2800    0.2900    0.3000    0.3100
0.3200    0.3300    0.3400    0.3500    0.3600    0.3700    0.3800    0.3900
0.4000    0.4100    0.4200    0.4300    0.4400    0.4500    0.4600    0.4700
0.4800    0.4900    0.5000    0.5100    0.5200    0.5300    0.5400    0.5500
0.5600    0.5700    0.5800    0.5900    0.6000    0.6100    0.6200    0.6300
0.6400    0.6500    0.6600    0.6700    0.6800    0.6900    0.7000    0.7100
0.7200    0.7300    0.7400    0.7500    0.7600    0.7700    0.7800    0.7900
0.8000    0.8100    0.8200    0.8300    0.8400    0.8500    0.8600    0.8700
0.8800    0.8900    0.9000    0.9100    0.9200    0.9300    0.9400    0.9500
0.9600    0.9700    0.9800    0.9900    1.0000    1.0100    1.0200    1.0300
1.0400    1.0500    1.0600    1.0700    1.0800    1.0900    1.1000    1.1100
1.1200    1.1300    1.1400    1.1500    1.1600    1.1700    1.1800    1.1900
1.2000    1.2100    1.2200    1.2300    1.2400    1.2500    1.2600    1.2700
1.2800    1.2900    1.3000    1.3100    1.3200    1.3300    1.3400    1.3500
1.3600    1.3700    1.3800    1.3900    1.4000    1.4100    1.4200    1.4300
1.4400    1.4500    1.4600    1.4700    1.4800    1.4900    1.5000    1.5100
1.5200    1.5300    1.5400    1.5500    1.5600    1.5700    1.5800    1.5900
1.6000    1.6100    1.6200    1.6300    1.6400    1.6500    1.6600    1.6700
1.6800    1.6900    1.7000    1.7100    1.7200    1.7300    1.7400    1.7500
1.7600    1.7700    1.7800    1.7900    1.8000    1.8100    1.8200    1.8300
1.8400    1.8500    1.8600    1.8700    1.8800    1.8900    1.9000    1.9100
1.9200    1.9300    1.9400    1.9500    1.9600    1.9700    1.9800    1.9900
2.0000    2.0100    2.0200    2.0300    2.0400    2.0500    2.0600    2.0700
2.0800    2.0900    2.1000    2.1100    2.1200    2.1300    2.1400    2.1500
2.1600    2.1700    2.1800    2.1900    2.2000    2.2100    2.2200    2.2300
2.2400    2.2500    2.2600    2.2700    2.2800    2.2900    2.3000    2.3100
2.3200    2.3300    2.3400    2.3500    2.3600    2.3700    2.3800    2.3900
2.4000    2.4100    2.4200    2.4300    2.4400    2.4500    2.4600    2.4700
2.4800    2.4900    2.5000    2.5100    2.5200    2.5300    2.5400    2.5500
2.5600    2.5700    2.5800    2.5900    2.6000    2.6100    2.6200    2.6300
2.6400    2.6500    2.6600    2.6700    2.6800    2.6900    2.7000    2.7100
2.7200    2.7300    2.7400    2.7500    2.7600    2.7700    2.7800    2.7900
2.8000    2.8100    2.8200    2.8300    2.8400    2.8500    2.8600    2.8700
2.8800    2.8900    2.9000    2.9100    2.9200    2.9300    2.9400    2.9500
2.9600    2.9700    2.9800    2.9900    3.0000    3.0100    3.0200    3.0300
3.0400    3.0500    3.0600    3.0700    3.0800    3.0900    3.1000    3.1100
3.1200    3.1300    3.1400    3.1500    3.1600    3.1700    3.1800    3.1900
3.2000    3.2100    3.2200    3.2300    3.2400    3.2500    3.2600    3.2700
3.2800    3.2900    3.3000    3.3100    3.3200    3.3300    3.3400    3.3500
3.3600    3.3700    3.3800    3.3900    3.4000    3.4100    3.4200    3.4300
3.4400    3.4500    3.4600    3.4700    3.4800    3.4900    3.5000    3.5100
3.5200    3.5300    3.5400    3.5500    3.5600    3.5700    3.5800    3.5900
3.6000    3.6100    3.6200    3.6300    3.6400    3.6500    3.6600    3.6700
3.6800    3.6900    3.7000    3.7100    3.7200    3.7300    3.7400    3.7500
3.7600    3.7700    3.7800    3.7900    3.8000    3.8100    3.8200    3.8300
3.8400    3.8500    3.8600    3.8700    3.8800    3.8900    3.9000    3.9100
3.9200    3.9300    3.9400    3.9500    3.9600    3.9700    3.9800    3.9900
4.0000    4.0100    4.0200    4.0300    4.0400    4.0500    4.0600    4.0700
4.0800    4.0900    4.1000    4.1100    4.1200    4.1300    4.1400    4.1500
4.1600    4.1700    4.1800    4.1900    4.2000    4.2100    4.2200    4.2300
4.2400    4.2500    4.2600    4.2700    4.2800    4.2900    4.3000    4.3100
4.3200    4.3300    4.3400    4.3500    4.3600    4.3700    4.3800    4.3900
4.4000    4.4100    4.4200    4.4300    4.4400    4.4500    4.4600    4.4700
4.4800    4.4900    4.5000    4.5100    4.5200    4.5300    4.5400    4.5500
4.5600    4.5700    4.5800    4.5900    4.6000    4.6100    4.6200    4.6300
4.6400    4.6500    4.6600    4.6700    4.6800    4.6900    4.7000    4.7100
4.7200    4.7300    4.7400    4.7500    4.7600    4.7700    4.7800    4.7900
4.8000    4.8100    4.8200    4.8300    4.8400    4.8500    4.8600    4.8700
4.8800    4.8900    4.9000    4.9100    4.9200    4.9300    4.9400    4.9500
4.9600    4.9700    4.9800    4.9900    5.0000    5.0100    5.0200    5.0300
5.0400    5.0500    5.0600    5.0700    5.0800    5.0900    5.1000    5.1100
5.1200    5.1300    5.1400    5.1500    5.1600    5.1700    5.1800    5.1900
5.2000    5.2100    5.2200    5.2300    5.2400    5.2500    5.2600    5.2700
5.2800    5.2900    5.3000    5.3100    5.3200    5.3300    5.3400    5.3500
5.3600    5.3700    5.3800    5.3900    5.4000    5.4100    5.4200    5.4300
5.4400    5.4500    5.4600    5.4700    5.4800    5.4900    5.5000    5.5100
5.5200    5.5300    5.5400    5.5500    5.5600    5.5700    5.5800    5.5900
5.6000    5.6100    5.6200    5.6300    5.6400    5.6500    5.6600    5.6700
5.6800    5.6900    5.7000    5.7100    5.7200    5.7300    5.7400    5.7500
5.7600    5.7700    5.7800    5.7900    5.8000    5.8100    5.8200    5.8300
5.8400    5.8500    5.8600    5.8700    5.8800    5.8900    5.9000    5.9100
5.9200    5.9300    5.9400    5.9500    5.9600    5.9700    5.9800    5.9900
</PP_R>
<PP_RAB type="real"  size="600" columns="8">
0.0100    0.0100    0.0100    0.0100    0.0100    0.0100    0.0100    0.0100
0.0100    0.0100    0.0100    0.0100    0.0100    0.0100    0.0100    0.0100
0.0100    0.0100    0.0100    0.0100    0.0100    0.0100    0.0100    0.0100
0.0100    0.0100    0.0100    0.0100    0.0100    0.0100    0.0100    0.0100
0.0100    0.0100    0.0100    0.0100    0.0100    0.0100    0.0100    0.0100
0.0100    0.0100    0.0100    0.0100    0.0100    0.0100    0.0100    0.0100
0.0100    0.0100    0.0100    0.0100    0.0100    0.0100    0.0100    0.0100
0.0100    0.0100    0.0100    0.0100    0.0100    0.0100    0.0100    0.0100
0.0100    0.0100    0.0100    0.0100    0.0100    0.0100    0.0100    0.0100
0.0100    0.0100    0.0100    0.0100    0.0100    0.0100    0.0100    0.0100
0.0100    0.0100    0.0100    0.0100    0.0100    0.0100    0.0100    0.0100
0.0100    0.0100    0.0100    0.0100    0.0100    0.0100    0.0100    0.0100
0.0100    0.0100    0.0100    0.0100    0.0100    0.0100    0.0100    0.0100
0.0100    0.0100    0.0100    0.0100    0.0100    0.0100    0.0100    0.0100
0.0100    0.0100    0.0100    0.0100    0.0100    0.0100    0.0100    0.0100
0.0100    0.0100    0.0100    0.0100    0.0100    0.0100    0.0100    0.0100
0.0100    0.0100    0.0100    0.0100    0.0100    0.0100    0.0100    0.0100
0.0100    0.0100    0.0100    0.0100    0.0100    0.0100    0.0100    0.0100
0.0100    0.0100    0.0100    0.0100    0.0100    0.0100    0.0100    0.0100
0.0100    0.0100    0.0100    0.0100    0.0100    0.0100    0.0100    0.0100
0.0100    0.0100    0.0100    0.0100    0.0100    0.0100    0.0100    0.0100
0.0100    0.0100    0.0100    0.0100    0.0100    0.0100    0.0100    0.0100
0.0100    0.0100    0.0100    0.0100    0.0100    0.0100    0.0100    0.0100
0.0100    0.0100    0.0100    0.0100    0.0100    0.0100    0.0100    0.0100
0.0100    0.0100    0.0100    0.0100    0.0100    0.0100    0.0100    0.0100
0.0100    0.0100    0.0100    0.0100    0.0100    0.0100    0.0100    0.0100
0.0100    0.0100    0.0100    0.0100    0.0100    0.0100    0.0100    0.0100
0.0100    0.0100    0.0100    0.0100    0.0100    0.0100    0.0100    0.0100
0.0100    0.0100    0.0100    0.0100    0.0100    0.0100    0.0100    0.0100
0.0100    0.0100    0.0100    0.0100    0.0100    0.0100    0.0100    0.0100
0.0100    0.0100    0.0100    0.0100    0.0100    0.0100    0.0100    0.0100
0.0100    0.0100    0.0100    0.0100    0.0100    0.0100    0.0100    0.0100
0.0100    0.0100    0.0100    0.0100    0.0100    0.0100    0.0100    0.0100
0.0100    0.0100    0.0100    0.0100    0.0100    0.0100    0.0100    0.0100
0.0100    0.0100    0.0100    0.0100    0.0100    0.0100    0.0100    0.0100
0.0100    0.0100    0.0100    0.0100    0.0100    0.0100    0.0100    0.0100
0.0100    0.0100    0.0100    0.0100    0.0100    0.0100    0.0100    0.0100
0.0100    0.0100    0.0100    0.0100    0.0100    0.0100    0.0100    0.0100
0.0100    0.0100    0.0100    0.0100    0.0100    0.0100    0.0100    0.0100
0.0100    0.0100    0.0100    0.0100    0.0100    0.0100    0.0100    0.0100
0.0100    0.0100    0.0100    0.0100    0.0100    0.0100    0.0100    0.0100
0.0100    0.0100    0.0100    0.0100    0.0100    0.0100    0.0100    0.0100
0.0100    0.0100    0.0100    0.0100    0.0100    0.0100    0.0100    0.0100
0.0100    0.0100    0.0100    0.0100    0.0100    0.0100    0.0100    0.0100
0.0100    0.0100    0.0100    0.0100    0.0100    0.0100    0.0100    0.0100
0.0100    0.0100    0.0100    0.0100    0.0100    0.0100    0.0100    0.0100
0.0100    0.0100    0.0100    0.0100    0.0100    0.0100    0.0100    0.0100
0.0100    0.0100    0.0100    0.0100    0.0100    0.0100    0.0100    0.0100
0.0100    0.0100    0.0100    0.0100    0.0100    0.0100    0.0100    0.0100
0.0100    0.0100    0.0100    0.0100    0.0100    0.0100    0.0100    0.0100
0.0100    0.0100    0.0100    0.0100    0.0100    0.0100    0.0100    0.0100
0.0100    0.0100    0.0100    0.0100    0.0100    0.0100    0.0100    0.0100
0.0100    0.0100    0.0100    0.0100    0.0100    0.0100    0.0100    0.0100
0.0100    0.0100    0.0100    0.0100    0.0100    0.0100    0.0100    0.0100
0.0100    0.0100    0.0100    0.0100    0.0100    0.0100    0.0100    0.0100
0.0100    0.0100    0.0100    0.0100    0.0100    0.0100    0.0100    0.0100
0.0100    0.0100    0.0100    0.0100    0.0100    0.0100    0.0100    0.0100
0.0100    0.0100    0.0100    0.0100    0.0100    0.0100    0.0100    0.0100
0.0100    0.0100    0.0100    0.0100    0.0100    0.0100    0.0100    0.0100
0.0100    0.0100    0.0100    0.0100    0.0100    0.0100    0.0100    0.0100
0.0100    0.0100    0.0100    0.0100    0.0100    0.0100    0.0100    0.0100
0.0100    0.0100    0.0100    0.0100    0.0100    0.0100    0.0100    0.0100
0.0100    0.0100    0.0100    0.0100    0.0100    0.0100    0.0100    0.0100
0.0100    0.0100    0.0100    0.0100    0.0100    0.0100    0.0100    0.0100
0.0100    0.0100    0.0100    0.0100    0.0100    0.0100    0.0100    0.0100
0.0100    0.0100    0.0100    0.0100    0.0100    0.0100    0.0100    0.0100
0.0100    0.0100    0.0100    0.0100    0.0100    0.0100    0.0100    0.0100
0.0100    0.0100    0.0100    0.0100    0.0100    0.0100    0.0100    0.0100
0.0100    0.0100    0.0100    0.0100    0.0100    0.0100    0.0100    0.0100
0.0100    0.0100    0.0100    0.0100    0.0100    0.0100    0.0100    0.0100
0.0100    0.0100    0.0100    0.0100    0.0100    0.0100    0.0100    0.0100
0.0100    0.0100    0.0100    0.0100    0.0100    0.0100    0.0100    0.0100
0.0100    0.0100    0.0100    0.0100    0.0100    0.0100    0.0100    0.0100
0.0100    0.0100    0.0100    0.0100    0.0100    0.0100    0.0100    0.0100
0.0100    0.0100    0.0100    0.0100    0.0100    0.0100    0.0100    0.0100
</PP_RAB>
</PP_MESH>
<PP_LOCAL type="real"  size="600" columns="4">
-3.4119744437E+01   -3.4118448941E+01   -3.4114562933E+01   -3.4108087908E+01
-3.4099026342E+01   -3.4087381674E+01   -3.4073158286E+01   -3.4056361469E+01
-3.4036997390E+01   -3.4015073048E+01   -3.3990596228E+01   -3.3963575451E+01
-3.3934019917E+01   -3.3901939447E+01   -3.3867344425E+01   -3.3830245733E+01
-3.3790654689E+01   -3.3748582982E+01   -3.3704042614E+01   -3.3657045831E+01
-3.3607605067E+01   -3.3555732887E+01   -3.3501441930E+01   -3.3444744858E+01
-3.3385654312E+01   -3.3324182867E+01   -3.3260342995E+01   -3.3194147034E+01
-3.3125607164E+01   -3.3054735382E+01   -3.2981543493E+01   -3.2906043101E+01
-3.2828245610E+01   -3.2748162227E+01   -3.2665803980E+01   -3.2581181734E+01
-3.2494306218E+01   -3.2405188058E+01   -3.2313837821E+01   -3.2220266053E+01
-3.2124483338E+01   -3.2026500353E+01   -3.1926327928E+01   -3.1823977120E+01
-3.1719459277E+01   -3.1612786124E+01   -3.1503969833E+01   -3.1393023113E+01
-3.1279959288E+01   -3.1164792388E+01   -3.1047537232E+01   -3.0928209514E+01
-3.0806825890E+01   -3.0683404060E+01   -3.0557962851E+01   -3.0430522288E+01
-3.0301103676E+01   -3.0169729662E+01   -3.0036424300E+01   -2.9901213107E+01
-2.9764123116E+01   -2.9625182912E+01   -2.9484422678E+01   -2.9341874211E+01
-2.9197570953E+01   -2.9051547997E+01   -2.8903842096E+01   -2.8754491656E+01
-2.8603536734E+01   -2.8451019015E+01   -2.8296981795E+01   -2.8141469951E+01
-2.7984529909E+01   -2.7826209607E+01   -2.7666558455E+01   -2.7505627288E+01
-2.7343468322E+01   -2.7180135098E+01   -2.7015682438E+01   -2.6850166383E+01
-2.6683644142E+01   -2.6516174034E+01   -2.6347815429E+01   -2.6178628688E+01
-2.6008675103E+01   -2.5838016830E+01   -2.5666716834E+01   -2.5494838814E+01
-2.5322447141E+01   -2.5149606785E+01   -2.4976383247E+01   -2.4802842482E+01
-2.4629050826E+01   -2.4455074913E+01   -2.4280981600E+01   -2.4106837877E+01
-2.3932710785E+01   -2.3758667326E+01   -2.3584774374E+01   -2.3411098579E+01
-2.3237706277E+01   -2.3064663388E+01   -2.2892035322E+01   -2.2719886878E+01
-2.2548282145E+01   -2.2377284401E+01   -2.2206956013E+01   -2.2037358334E+01
-2.1868551606E+01   -2.1700594858E+01   -2.1533545807E+01   -2.1367460764E+01
-2.1202394538E+01   -2.1038400338E+01   -2.0875529691E+01   -2.0713832343E+01
-2.0553356184E+01   -2.0394147158E+01   -2.0236249189E+01   -2.0079704102E+01
-1.9924551553E+01   -1.9770828961E+01   -1.9618571446E+01   -1.9467811766E+01
-1.9318580262E+01   -1.9170904810E+01   -1.9024810768E+01   -1.8880320939E+01
-1.8737455524E+01   -1.8596232095E+01   -1.8456665556E+01   -1.8318768118E+01
-1.8182549271E+01   -1.8048015766E+01   -1.7915171588E+01   -1.7784017944E+01
-1.7654553240E+01   -1.7526773074E+01   -1.7400670215E+01   -1.7276234591E+01
-1.7153453279E+01   -1.7032310485E+01   -1.6912787540E+01   -1.6794862854E+01
-1.6678512008E+01   -1.6563707616E+01   -1.6450418997E+01   -1.6338613703E+01
-1.6228258690E+01   -1.6119321846E+01   -1.6011772215E+01   -1.5905579165E+01
-1.5800712200E+01   -1.5697140666E+01   -1.5594835469E+01   -1.5493770343E+01
-1.5393926922E+01   -1.5295296110E+01   -1.5197879051E+01   -1.5101682229E+01
-1.5006697564E+01   -1.4912903385E+01   -1.4820276421E+01   -1.4728793708E+01
-1.4638437979E+01   -1.4549195052E+01   -1.4461047025E+01   -1.4373974892E+01
-1.4287961251E+01   -1.4202989125E+01   -1.4119041362E+01   -1.4036100932E+01
-1.3954151015E+01   -1.3873174951E+01   -1.3793156238E+01   -1.3714078544E+01
-1.3635925711E+01   -1.3558681764E+01   -1.3482330916E+01   -1.3406857584E+01
-1.3332246388E+01   -1.3258482169E+01   -1.3185549993E+01   -1.3113435161E+01
-1.3042123216E+01   -1.2971599955E+01   -1.2901851432E+01   -1.2832863964E+01
-1.2764624140E+01   -1.2697118821E+01   -1.2630335149E+01   -1.2564260542E+01
-1.2498882701E+01   -1.2434189609E+01   -1.2370169530E+01   -1.2306811006E+01
-1.2244102856E+01   -1.2182034172E+01   -1.2120594318E+01   -1.2059772921E+01
-1.1999559867E+01   -1.1939945299E+01   -1.1880919606E+01   -1.1822473424E+01
-1.1764597622E+01   -1.1707283300E+01   -1.1650521786E+01   -1.1594304624E+01
-1.1538623571E+01   -1.1483470593E+01   -1.1428837856E+01   -1.1374717725E+01
-1.1321102755E+01   -1.1267985688E+01   -1.1215359448E+01   -1.1163217139E+01
-1.1111552034E+01   -1.1060357579E+01   -1.1009627382E+01   -1.0959355211E+01
-1.0909534991E+01   -1.0860160794E+01   -1.0811226843E+01   -1.0762727498E+01
-1.0714657256E+01   -1.0667010742E+01   -1.0619782709E+01   -1.0572968024E+01
-1.0526561669E+01   -1.0480558729E+01   -1.0434954389E+01   -1.0389743927E+01
-1.0344922703E+01   -1.0300486160E+01   -1.0256429809E+01   -1.0212749228E+01
-1.0169440054E+01   -1.0126497975E+01   -1.0083918728E+01   -1.0041698092E+01
-9.9998318798E+00   -9.9583159404E+00   -9.9171461500E+00   -9.8763184112E+00
-9.8358286501E+00   -9.7956728147E+00   -9.7558468737E+00   -9.7163468166E+00
-9.6771686534E+00   -9.6383084158E+00   -9.5997621588E+00   -9.5615259624E+00
-9.5235959345E+00   -9.4859682135E+00   -9.4486389717E+00   -9.4116044187E+00
-9.3748608049E+00   -9.3384044260E+00   -9.3022316256E+00   -9.2663387999E+00
-9.2307224008E+00   -9.1953789395E+00   -9.1603049892E+00   -9.1254971884E+00
-9.0909522430E+00   -9.0566669280E+00   -9.0226380897E+00   -8.9888626463E+00
-8.9553375885E+00   -8.9220599796E+00   -8.8890269558E+00   -8.8562357245E+00
-8.8236835635E+00   -8.7913678194E+00   -8.7592859057E+00   -8.7274353000E+00
-8.6958135422E+00   -8.6644182307E+00   -8.6332470204E+00   -8.6022976185E+00
-8.5715677819E+00   -8.5410553136E+00   -8.5107580597E+00   -8.4806739053E+00
-8.4508007720E+00   -8.4211366146E+00   -8.3916794177E+00   -8.3624271932E+00
-8.3333779775E+00   -8.3045298292E+00   -8.2758808264E+00   -8.2474290650E+00
-8.2191726570E+00   -8.1911097285E+00   -8.1632384188E+00   -8.1355568790E+00
-8.1080632713E+00   -8.0807557682E+00   -8.0536325521E+00   -8.0266918154E+00
-7.9999317596E+00   -7.9733505965E+00   -7.9469465475E+00   -7.9207178446E+00
-7.8946627308E+00   -7.8687794604E+00   -7.8430663004E+00   -7.8175215305E+00
-7.7921434447E+00   -7.7669303514E+00   -7.7418805751E+00   -7.7169924568E+00
-7.6922643551E+00   -7.6676946469E+00   -7.6432817284E+00   -7.6190240161E+00
-7.5949199472E+00   -7.5709679796E+00   -7.5471665951E+00   -7.5235142982E+00
-7.5000096161E+00   -7.4766511188E+00   -7.4534373523E+00   -7.4303668998E+00
-7.4074383816E+00   -7.3846503503E+00   -7.3620016580E+00   -7.3394910677E+00
-7.3171173441E+00   -7.2948792935E+00   -7.2727753866E+00   -7.2508041773E+00
-7.2289642570E+00   -7.2072543301E+00   -7.1856727358E+00   -7.1642181587E+00
-7.1428893081E+00   -7.1216848761E+00   -7.1006056471E+00   -7.0796516968E+00
-7.0588232320E+00   -7.0381207309E+00   -7.0175414810E+00   -6.9970836489E+00
-6.9767451697E+00   -6.9565233005E+00   -6.9364178459E+00   -6.9164278473E+00
-6.8965524902E+00   -6.8767914358E+00   -6.8571433685E+00   -6.8376073109E+00
-6.8181822928E+00   -6.7988672852E+00   -6.7796613868E+00   -6.7605636915E+00
-6.7415732871E+00   -6.7226892724E+00   -6.7039107556E+00   -6.6852368549E+00
-6.6666666987E+00   -6.6481994248E+00   -6.6298341808E+00   -6.6115701233E+00
-6.5934064183E+00   -6.5753422411E+00   -6.5573767757E+00   -6.5395092154E+00
-6.5217387619E+00   -6.5040646257E+00   -6.4864860260E+00   -6.4690021900E+00
-6.4516123538E+00   -6.4343157611E+00   -6.4171116640E+00   -6.3999993226E+00
-6.3829780048E+00   -6.3660469862E+00   -6.3492055501E+00   -6.3324529876E+00
-6.3157885968E+00   -6.2992116837E+00   -6.2827215610E+00   -6.2663175491E+00
-6.2499989752E+00   -6.2337651735E+00   -6.2176154852E+00   -6.2015492582E+00
-6.1855658472E+00   -6.1696646135E+00   -6.1538449250E+00   -6.1381061561E+00
-6.1224476873E+00   -6.1068689058E+00   -6.0913692048E+00   -6.0759479836E+00
-6.0606046478E+00   -6.0453386087E+00   -6.0301492838E+00   -6.0150360962E+00
-5.9999984749E+00   -5.9850358545E+00   -5.9701476754E+00   -5.9553333834E+00
-5.9405924299E+00   -5.9259242715E+00   -5.9113283704E+00   -5.8968041940E+00
-5.8823512148E+00   -5.8679689108E+00   -5.8536567646E+00   -5.8394142643E+00
-5.8252409027E+00   -5.8111361775E+00   -5.7970995915E+00   -5.7831306519E+00
-5.7692288711E+00   -5.7553937659E+00   -5.7416248576E+00   -5.7279216724E+00
-5.7142837408E+00   -5.7007105978E+00   -5.6872017829E+00   -5.6737568397E+00
-5.6603753165E+00   -5.6470567654E+00   -5.6338007431E+00   -5.6206068102E+00
-5.6074745316E+00   -5.5944034760E+00   -5.5813932164E+00   -5.5684433296E+00
-5.5555533963E+00   -5.5427230011E+00   -5.5299517326E+00   -5.5172391828E+00
-5.5045849478E+00   -5.4919886273E+00   -5.4794498246E+00   -5.4669681466E+00
-5.4545432039E+00   -5.4421746104E+00   -5.4298619838E+00   -5.4176049450E+00
-5.4054031184E+00   -5.3932561319E+00   -5.3811636165E+00   -5.3691252066E+00
-5.3571405400E+00   -5.3452092575E+00   -5.3333310034E+00   -5.3215054247E+00
-5.3097321720E+00   -5.2980108986E+00   -5.2863412612E+00   -5.2747229192E+00
-5.2631555352E+00   -5.2516387746E+00   -5.2401723059E+00   -5.2287558004E+00
-5.2173889322E+00   -5.2060713783E+00   -5.1948028185E+00   -5.1835829353E+00
-5.1724114141E+00   -5.1612879427E+00   -5.1502122118E+00   -5.1391839148E+00
-5.1282027477E+00   -5.1172684088E+00   -5.1063805994E+00   -5.0955390230E+00
-5.0847433859E+00   -5.0739933965E+00   -5.0632887661E+00   -5.0526292082E+00
-5.0420144386E+00   -5.0314441757E+00   -5.0209181401E+00   -5.0104360549E+00
-4.9999976454E+00   -4.9896026391E+00   -4.9792507659E+00   -4.9689417580E+00
-4.9586753495E+00   -4.9484512770E+00   -4.9382692792E+00   -4.9281290968E+00
-4.9180304729E+00   -4.9079731523E+00   -4.8979568824E+00   -4.8879814122E+00
-4.8780464930E+00   -4.8681518779E+00   -4.8582973223E+00   -4.8484825833E+00
-4.8387074202E+00   -4.8289715940E+00   -4.8192748677E+00   -4.8096170063E+00
-4.7999977766E+00   -4.7904169472E+00   -4.7808742888E+00   -4.7713695735E+00
-4.7619025755E+00   -4.7524730709E+00   -4.7430808372E+00   -4.7337256540E+00
-4.7244073024E+00   -4.7151255654E+00   -4.7058802276E+00   -4.6966710752E+00
-4.6874978962E+00   -4.6783604804E+00   -4.6692586188E+00   -4.6601921045E+00
-4.6511607319E+00   -4.6421642971E+00   -4.6332025977E+00   -4.6242754329E+00
-4.6153826036E+00   -4.6065239120E+00   -4.5976991618E+00   -4.5889081585E+00
-4.5801507087E+00   -4.5714266208E+00   -4.5627357045E+00   -4.5540777709E+00
-4.5454526326E+00   -4.5368601037E+00   -4.5282999995E+00   -4.5197721369E+00
-4.5112763341E+00   -4.5028124105E+00   -4.4943801871E+00   -4.4859794861E+00
-4.4776101311E+00   -4.4692719470E+00   -4.4609647600E+00   -4.4526883974E+00
-4.4444426882E+00   -4.4362274622E+00   -4.4280425507E+00   -4.4198877864E+00
-4.4117630028E+00   -4.4036680350E+00   -4.3956027192E+00   -4.3875668927E+00
-4.3795603940E+00   -4.3715830630E+00   -4.3636347405E+00   -4.3557152685E+00
-4.3478244904E+00   -4.3399622503E+00   -4.3321283938E+00   -4.3243227674E+00
-4.3165452188E+00   -4.3087955967E+00   -4.3010737512E+00   -4.2933795329E+00
-4.2857127940E+00   -4.2780733876E+00   -4.2704611676E+00   -4.2628759892E+00
-4.2553177086E+00   -4.2477861830E+00   -4.2402812705E+00   -4.2328028303E+00
-4.2253507227E+00   -4.2179248087E+00   -4.2105249505E+00   -4.2031510112E+00
-4.1958028549E+00   -4.1884803466E+00   -4.1811833522E+00   -4.1739117386E+00
-4.1666653736E+00   -4.1594441259E+00   -4.1522478652E+00   -4.1450764619E+00
-4.1379297876E+00   -4.1308077146E+00   -4.1237101159E+00   -4.1166368657E+00
-4.1095878388E+00   -4.1025629112E+00   -4.0955619593E+00   -4.0885848607E+00
-4.0816314936E+00   -4.0747017372E+00   -4.0677954714E+00   -4.0609125770E+00
-4.0540529355E+00   -4.0472164294E+00   -4.0404029416E+00   -4.0336123563E+00
-4.0268445580E+00   -4.0200994324E+00   -4.0133768655E+00   -4.0066767446E+00
</PP_LOCAL>
<PP_NONLOCAL>
<PP_BETA.1
type="real"
size="600"
columns="4"
index="1"
angular_momentum="0"
cutoff_radius_index=" 160"
cutoff_radius="    1.5900000000E+00" >
-2.0984985971E-10    5.6228127093E-02    1.1236253026E-01    1.6830987220E-01
2.2397758481E-01    2.7927424343E-01    3.3410992912E-01    3.8839657485E-01
4.4204829223E-01    4.9498167533E-01    5.4711607865E-01    5.9837386648E-01
6.4868063136E-01    6.9796537975E-01    7.4616068344E-01    7.9320279566E-01
8.3903173139E-01    8.8359131181E-01    9.2682917321E-01    9.6869674138E-01
1.0091491727E+00    1.0481452641E+00    1.0856473332E+00    1.1216210726E+00
1.1560353803E+00    1.1888621698E+00    1.2200761635E+00    1.2496546738E+00
1.2775773748E+00    1.3038260696E+00    1.3283844575E+00    1.3512379044E+00
1.3723732222E+00    1.3917784590E+00    1.4094427070E+00    1.4253559286E+00
1.4395088074E+00    1.4518926240E+00    1.4624991624E+00    1.4713206471E+00
1.4783497143E+00    1.4835794172E+00    1.4870032680E+00    1.4886153159E+00
1.4884102606E+00    1.4863836019E+00    1.4825318230E+00    1.4768526063E+00
1.4693450786E+00    1.4600100844E+00    1.4488504813E+00    1.4358714570E+00
1.4210808607E+00    1.4044895464E+00    1.3861117218E+00    1.3659652984E+00
1.3440722376E+00    1.3204588870E+00    1.2951563008E+00    1.2682005403E+00
1.2396329474E+00    1.2095003871E+00    1.1778554535E+00    1.1447566338E+00
1.1102684277E+00    1.0744614161E+00    1.0374122773E+00    9.9920374709E-01
9.5992452017E-01    9.1966909167E-01    8.7853753741E-01    8.3663523268E-01
7.9407250988E-01    7.5096425609E-01    7.0742945247E-01    6.6359065797E-01
6.1957344061E-01    5.7550576043E-01    5.3151730850E-01    4.8773880736E-01
4.4430127861E-01    4.0133528402E-01    3.5897014677E-01    3.1733316002E-01
2.7654879020E-01    2.3673788267E-01    1.9801687739E-01    1.6049704257E-01
1.2428373394E-01    8.9475687291E-02    5.6164351727E-02    2.4433270667E-02
-5.6424826694E-03   -3.3996809091E-02   -6.0573020924E-02   -8.5324208117E-02
-1.0821352863E-01   -1.2921441953E-01   -1.4831072597E-01   -1.6549674614E-01
-1.8077719115E-01   -1.9416705955E-01   -2.0569142729E-01   -2.1538515485E-01
-2.2329251377E-01   -2.2946673636E-01   -2.3396949244E-01   -2.3687029843E-01
-2.3824586446E-01   -2.3817938590E-01   -2.3675978653E-01   -2.3408092082E-01
-2.3024074346E-01   -2.2534045461E-01   -2.1948362938E-01   -2.1277534060E-01
-2.0532128368E-01   -1.9722691242E-01   -1.8859659448E-01   -1.7953279513E-01
-1.7013529721E-01   -1.6050046493E-01   -1.5072055900E-01   -1.4088310919E-01
-1.3107035018E-01   -1.2135872603E-01   -1.1181846706E-01   -1.0251324268E-01
-9.3499892241E-02   -8.4828235886E-02   -7.6540964919E-02   -6.8673611878E-02
-6.1254598536E-02   -5.4305358796E-02   -4.7840533815E-02   -4.1868234451E-02
-3.6390365542E-02   -3.1403006938E-02   -2.6896843453E-02   -2.2857637012E-02
-1.9266733016E-02   -1.6101590856E-02   -1.3336338214E-02   -1.0942308006E-02
-8.8886609443E-03   -7.1428510257E-03   -5.6710024683E-03   -4.4392325659E-03
-3.4148549881E-03   -2.5678217517E-03   -1.8716214025E-03   -1.3036182685E-03
-8.4586109634E-04   -4.8410153817E-04   -2.1075626087E-04   -2.4153931810E-05
7.2830666804E-05    7.4198462806E-05    1.9926540599E-05   -1.1202657059E-05
0. 0. 0. 0.
0. 0. 0. 0.
0. 0. 0. 0.
0. 0. 0. 0.
0. 0. 0. 0.
0. 0. 0. 0.
0. 0. 0. 0.
0. 0. 0. 0.
0. 0. 0. 0.
0. 0. 0. 0.
0. 0. 0. 0.
0. 0. 0. 0.
0. 0. 0. 0.
0. 0. 0. 0.
0. 0. 0. 0.
0. 0. 0. 0.
0. 0. 0. 0.
0. 0. 0. 0.
0. 0. 0. 0.
0. 0. 0. 0.
0. 0. 0. 0.
0. 0. 0. 0.
0. 0. 0. 0.
0. 0. 0. 0.
0. 0. 0. 0.
0. 0. 0. 0.
0. 0. 0. 0.
0. 0. 0. 0.
0. 0. 0. 0.
0. 0. 0. 0.
0. 0. 0. 0.
0. 0. 0. 0.
0. 0. 0. 0.
0. 0. 0. 0.
0. 0. 0. 0.
0. 0. 0. 0.
0. 0. 0. 0.
0. 0. 0. 0.
0. 0. 0. 0.
0. 0. 0. 0.
0. 0. 0. 0.
0. 0. 0. 0.
0. 0. 0. 0.
0. 0. 0. 0.
0. 0. 0. 0.
0. 0. 0. 0.
0. 0. 0. 0.
0. 0. 0. 0.
0. 0. 0. 0.
0. 0. 0. 0.
0. 0. 0. 0.
0. 0. 0. 0.
0. 0. 0. 0.
0. 0. 0. 0.
0. 0. 0. 0.
0. 0. 0. 0.
0. 0. 0. 0.
0. 0. 0. 0.
0. 0. 0. 0.
0. 0. 0. 0.
0. 0. 0. 0.
0. 0. 0. 0.
0. 0. 0. 0.
0. 0. 0. 0.
0. 0. 0. 0.
0. 0. 0. 0.
0. 0. 0. 0.
0. 0. 0. 0.
0. 0. 0. 0.
0. 0. 0. 0.
0. 0. 0. 0.
0. 0. 0. 0.
0. 0. 0. 0.
0. 0. 0. 0.
0. 0. 0. 0.
0. 0. 0. 0.
0. 0. 0. 0.
0. 0. 0. 0.
0. 0. 0. 0.
0. 0. 0. 0.
0. 0. 0. 0.
0. 0. 0. 0.
0. 0. 0. 0.
0. 0. 0. 0.
0. 0. 0. 0.
0. 0. 0. 0.